PSF

       1 !NTITLE
 REMARK PSF file generated for a box of pure Argon atoms

    5849 !NATOM
       1 ARGN 1    ARG  ARG  AR     0.000000        39.9480           0
       2 ARGN 2    ARG  ARG  AR     0.000000        39.9480           0
       3 ARGN 3    ARG  ARG  AR     0.000000        39.9480           0
       4 ARGN 4    ARG  ARG  AR     0.000000        39.9480           0
       5 ARGN 5    ARG  ARG  AR     0.000000        39.9480           0
       6 ARGN 6    ARG  ARG  AR     0.000000        39.9480           0
       7 ARGN 7    ARG  ARG  AR     0.000000        39.9480           0
       8 ARGN 8    ARG  ARG  AR     0.000000        39.9480           0
       9 ARGN 9    ARG  ARG  AR     0.000000        39.9480           0
      10 ARGN 10   ARG  ARG  AR     0.000000        39.9480           0
      11 ARGN 11   ARG  ARG  AR     0.000000        39.9480           0
      12 ARGN 12   ARG  ARG  AR     0.000000        39.9480           0
      13 ARGN 13   ARG  ARG  AR     0.000000        39.9480           0
      14 ARGN 14   ARG  ARG  AR     0.000000        39.9480           0
      15 ARGN 15   ARG  ARG  AR     0.000000        39.9480           0
      16 ARGN 16   ARG  ARG  AR     0.000000        39.9480           0
      17 ARGN 17   ARG  ARG  AR     0.000000        39.9480           0
      18 ARGN 18   ARG  ARG  AR     0.000000        39.9480           0
      19 ARGN 19   ARG  ARG  AR     0.000000        39.9480           0
      20 ARGN 20   ARG  ARG  AR     0.000000        39.9480           0
      21 ARGN 21   ARG  ARG  AR     0.000000        39.9480           0
      22 ARGN 22   ARG  ARG  AR     0.000000        39.9480           0
      23 ARGN 23   ARG  ARG  AR     0.000000        39.9480           0
      24 ARGN 24   ARG  ARG  AR     0.000000        39.9480           0
      25 ARGN 25   ARG  ARG  AR     0.000000        39.9480           0
      26 ARGN 26   ARG  ARG  AR     0.000000        39.9480           0
      27 ARGN 27   ARG  ARG  AR     0.000000        39.9480           0
      28 ARGN 28   ARG  ARG  AR     0.000000        39.9480           0
      29 ARGN 29   ARG  ARG  AR     0.000000        39.9480           0
      30 ARGN 30   ARG  ARG  AR     0.000000        39.9480           0
      31 ARGN 31   ARG  ARG  AR     0.000000        39.9480           0
      32 ARGN 32   ARG  ARG  AR     0.000000        39.9480           0
      33 ARGN 33   ARG  ARG  AR     0.000000        39.9480           0
      34 ARGN 34   ARG  ARG  AR     0.000000        39.9480           0
      35 ARGN 35   ARG  ARG  AR     0.000000        39.9480           0
      36 ARGN 36   ARG  ARG  AR     0.000000        39.9480           0
      37 ARGN 37   ARG  ARG  AR     0.000000        39.9480           0
      38 ARGN 38   ARG  ARG  AR     0.000000        39.9480           0
      39 ARGN 39   ARG  ARG  AR     0.000000        39.9480           0
      40 ARGN 40   ARG  ARG  AR     0.000000        39.9480           0
      41 ARGN 41   ARG  ARG  AR     0.000000        39.9480           0
      42 ARGN 42   ARG  ARG  AR     0.000000        39.9480           0
      43 ARGN 43   ARG  ARG  AR     0.000000        39.9480           0
      44 ARGN 44   ARG  ARG  AR     0.000000        39.9480           0
      45 ARGN 45   ARG  ARG  AR     0.000000        39.9480           0
      46 ARGN 46   ARG  ARG  AR     0.000000        39.9480           0
      47 ARGN 47   ARG  ARG  AR     0.000000        39.9480           0
      48 ARGN 48   ARG  ARG  AR     0.000000        39.9480           0
      49 ARGN 49   ARG  ARG  AR     0.000000        39.9480           0
      50 ARGN 50   ARG  ARG  AR     0.000000        39.9480           0
      51 ARGN 51   ARG  ARG  AR     0.000000        39.9480           0
      52 ARGN 52   ARG  ARG  AR     0.000000        39.9480           0
      53 ARGN 53   ARG  ARG  AR     0.000000        39.9480           0
      54 ARGN 54   ARG  ARG  AR     0.000000        39.9480           0
      55 ARGN 55   ARG  ARG  AR     0.000000        39.9480           0
      56 ARGN 56   ARG  ARG  AR     0.000000        39.9480           0
      57 ARGN 57   ARG  ARG  AR     0.000000        39.9480           0
      58 ARGN 58   ARG  ARG  AR     0.000000        39.9480           0
      59 ARGN 59   ARG  ARG  AR     0.000000        39.9480           0
      60 ARGN 60   ARG  ARG  AR     0.000000        39.9480           0
      61 ARGN 61   ARG  ARG  AR     0.000000        39.9480           0
      62 ARGN 62   ARG  ARG  AR     0.000000        39.9480           0
      63 ARGN 63   ARG  ARG  AR     0.000000        39.9480           0
      64 ARGN 64   ARG  ARG  AR     0.000000        39.9480           0
      65 ARGN 65   ARG  ARG  AR     0.000000        39.9480           0
      66 ARGN 66   ARG  ARG  AR     0.000000        39.9480           0
      67 ARGN 67   ARG  ARG  AR     0.000000        39.9480           0
      68 ARGN 68   ARG  ARG  AR     0.000000        39.9480           0
      69 ARGN 69   ARG  ARG  AR     0.000000        39.9480           0
      70 ARGN 70   ARG  ARG  AR     0.000000        39.9480           0
      71 ARGN 71   ARG  ARG  AR     0.000000        39.9480           0
      72 ARGN 72   ARG  ARG  AR     0.000000        39.9480           0
      73 ARGN 73   ARG  ARG  AR     0.000000        39.9480           0
      74 ARGN 74   ARG  ARG  AR     0.000000        39.9480           0
      75 ARGN 75   ARG  ARG  AR     0.000000        39.9480           0
      76 ARGN 76   ARG  ARG  AR     0.000000        39.9480           0
      77 ARGN 77   ARG  ARG  AR     0.000000        39.9480           0
      78 ARGN 78   ARG  ARG  AR     0.000000        39.9480           0
      79 ARGN 79   ARG  ARG  AR     0.000000        39.9480           0
      80 ARGN 80   ARG  ARG  AR     0.000000        39.9480           0
      81 ARGN 81   ARG  ARG  AR     0.000000        39.9480           0
      82 ARGN 82   ARG  ARG  AR     0.000000        39.9480           0
      83 ARGN 83   ARG  ARG  AR     0.000000        39.9480           0
      84 ARGN 84   ARG  ARG  AR     0.000000        39.9480           0
      85 ARGN 85   ARG  ARG  AR     0.000000        39.9480           0
      86 ARGN 86   ARG  ARG  AR     0.000000        39.9480           0
      87 ARGN 87   ARG  ARG  AR     0.000000        39.9480           0
      88 ARGN 88   ARG  ARG  AR     0.000000        39.9480           0
      89 ARGN 89   ARG  ARG  AR     0.000000        39.9480           0
      90 ARGN 90   ARG  ARG  AR     0.000000        39.9480           0
      91 ARGN 91   ARG  ARG  AR     0.000000        39.9480           0
      92 ARGN 92   ARG  ARG  AR     0.000000        39.9480           0
      93 ARGN 93   ARG  ARG  AR     0.000000        39.9480           0
      94 ARGN 94   ARG  ARG  AR     0.000000        39.9480           0
      95 ARGN 95   ARG  ARG  AR     0.000000        39.9480           0
      96 ARGN 96   ARG  ARG  AR     0.000000        39.9480           0
      97 ARGN 97   ARG  ARG  AR     0.000000        39.9480           0
      98 ARGN 98   ARG  ARG  AR     0.000000        39.9480           0
      99 ARGN 99   ARG  ARG  AR     0.000000        39.9480           0
     100 ARGN 100  ARG  ARG  AR     0.000000        39.9480           0
     101 ARGN 101  ARG  ARG  AR     0.000000        39.9480           0
     102 ARGN 102  ARG  ARG  AR     0.000000        39.9480           0
     103 ARGN 103  ARG  ARG  AR     0.000000        39.9480           0
     104 ARGN 104  ARG  ARG  AR     0.000000        39.9480           0
     105 ARGN 105  ARG  ARG  AR     0.000000        39.9480           0
     106 ARGN 106  ARG  ARG  AR     0.000000        39.9480           0
     107 ARGN 107  ARG  ARG  AR     0.000000        39.9480           0
     108 ARGN 108  ARG  ARG  AR     0.000000        39.9480           0
     109 ARGN 109  ARG  ARG  AR     0.000000        39.9480           0
     110 ARGN 110  ARG  ARG  AR     0.000000        39.9480           0
     111 ARGN 111  ARG  ARG  AR     0.000000        39.9480           0
     112 ARGN 112  ARG  ARG  AR     0.000000        39.9480           0
     113 ARGN 113  ARG  ARG  AR     0.000000        39.9480           0
     114 ARGN 114  ARG  ARG  AR     0.000000        39.9480           0
     115 ARGN 115  ARG  ARG  AR     0.000000        39.9480           0
     116 ARGN 116  ARG  ARG  AR     0.000000        39.9480           0
     117 ARGN 117  ARG  ARG  AR     0.000000        39.9480           0
     118 ARGN 118  ARG  ARG  AR     0.000000        39.9480           0
     119 ARGN 119  ARG  ARG  AR     0.000000        39.9480           0
     120 ARGN 120  ARG  ARG  AR     0.000000        39.9480           0
     121 ARGN 121  ARG  ARG  AR     0.000000        39.9480           0
     122 ARGN 122  ARG  ARG  AR     0.000000        39.9480           0
     123 ARGN 123  ARG  ARG  AR     0.000000        39.9480           0
     124 ARGN 124  ARG  ARG  AR     0.000000        39.9480           0
     125 ARGN 125  ARG  ARG  AR     0.000000        39.9480           0
     126 ARGN 126  ARG  ARG  AR     0.000000        39.9480           0
     127 ARGN 127  ARG  ARG  AR     0.000000        39.9480           0
     128 ARGN 128  ARG  ARG  AR     0.000000        39.9480           0
     129 ARGN 129  ARG  ARG  AR     0.000000        39.9480           0
     130 ARGN 130  ARG  ARG  AR     0.000000        39.9480           0
     131 ARGN 131  ARG  ARG  AR     0.000000        39.9480           0
     132 ARGN 132  ARG  ARG  AR     0.000000        39.9480           0
     133 ARGN 133  ARG  ARG  AR     0.000000        39.9480           0
     134 ARGN 134  ARG  ARG  AR     0.000000        39.9480           0
     135 ARGN 135  ARG  ARG  AR     0.000000        39.9480           0
     136 ARGN 136  ARG  ARG  AR     0.000000        39.9480           0
     137 ARGN 137  ARG  ARG  AR     0.000000        39.9480           0
     138 ARGN 138  ARG  ARG  AR     0.000000        39.9480           0
     139 ARGN 139  ARG  ARG  AR     0.000000        39.9480           0
     140 ARGN 140  ARG  ARG  AR     0.000000        39.9480           0
     141 ARGN 141  ARG  ARG  AR     0.000000        39.9480           0
     142 ARGN 142  ARG  ARG  AR     0.000000        39.9480           0
     143 ARGN 143  ARG  ARG  AR     0.000000        39.9480           0
     144 ARGN 144  ARG  ARG  AR     0.000000        39.9480           0
     145 ARGN 145  ARG  ARG  AR     0.000000        39.9480           0
     146 ARGN 146  ARG  ARG  AR     0.000000        39.9480           0
     147 ARGN 147  ARG  ARG  AR     0.000000        39.9480           0
     148 ARGN 148  ARG  ARG  AR     0.000000        39.9480           0
     149 ARGN 149  ARG  ARG  AR     0.000000        39.9480           0
     150 ARGN 150  ARG  ARG  AR     0.000000        39.9480           0
     151 ARGN 151  ARG  ARG  AR     0.000000        39.9480           0
     152 ARGN 152  ARG  ARG  AR     0.000000        39.9480           0
     153 ARGN 153  ARG  ARG  AR     0.000000        39.9480           0
     154 ARGN 154  ARG  ARG  AR     0.000000        39.9480           0
     155 ARGN 155  ARG  ARG  AR     0.000000        39.9480           0
     156 ARGN 156  ARG  ARG  AR     0.000000        39.9480           0
     157 ARGN 157  ARG  ARG  AR     0.000000        39.9480           0
     158 ARGN 158  ARG  ARG  AR     0.000000        39.9480           0
     159 ARGN 159  ARG  ARG  AR     0.000000        39.9480           0
     160 ARGN 160  ARG  ARG  AR     0.000000        39.9480           0
     161 ARGN 161  ARG  ARG  AR     0.000000        39.9480           0
     162 ARGN 162  ARG  ARG  AR     0.000000        39.9480           0
     163 ARGN 163  ARG  ARG  AR     0.000000        39.9480           0
     164 ARGN 164  ARG  ARG  AR     0.000000        39.9480           0
     165 ARGN 165  ARG  ARG  AR     0.000000        39.9480           0
     166 ARGN 166  ARG  ARG  AR     0.000000        39.9480           0
     167 ARGN 167  ARG  ARG  AR     0.000000        39.9480           0
     168 ARGN 168  ARG  ARG  AR     0.000000        39.9480           0
     169 ARGN 169  ARG  ARG  AR     0.000000        39.9480           0
     170 ARGN 170  ARG  ARG  AR     0.000000        39.9480           0
     171 ARGN 171  ARG  ARG  AR     0.000000        39.9480           0
     172 ARGN 172  ARG  ARG  AR     0.000000        39.9480           0
     173 ARGN 173  ARG  ARG  AR     0.000000        39.9480           0
     174 ARGN 174  ARG  ARG  AR     0.000000        39.9480           0
     175 ARGN 175  ARG  ARG  AR     0.000000        39.9480           0
     176 ARGN 176  ARG  ARG  AR     0.000000        39.9480           0
     177 ARGN 177  ARG  ARG  AR     0.000000        39.9480           0
     178 ARGN 178  ARG  ARG  AR     0.000000        39.9480           0
     179 ARGN 179  ARG  ARG  AR     0.000000        39.9480           0
     180 ARGN 180  ARG  ARG  AR     0.000000        39.9480           0
     181 ARGN 181  ARG  ARG  AR     0.000000        39.9480           0
     182 ARGN 182  ARG  ARG  AR     0.000000        39.9480           0
     183 ARGN 183  ARG  ARG  AR     0.000000        39.9480           0
     184 ARGN 184  ARG  ARG  AR     0.000000        39.9480           0
     185 ARGN 185  ARG  ARG  AR     0.000000        39.9480           0
     186 ARGN 186  ARG  ARG  AR     0.000000        39.9480           0
     187 ARGN 187  ARG  ARG  AR     0.000000        39.9480           0
     188 ARGN 188  ARG  ARG  AR     0.000000        39.9480           0
     189 ARGN 189  ARG  ARG  AR     0.000000        39.9480           0
     190 ARGN 190  ARG  ARG  AR     0.000000        39.9480           0
     191 ARGN 191  ARG  ARG  AR     0.000000        39.9480           0
     192 ARGN 192  ARG  ARG  AR     0.000000        39.9480           0
     193 ARGN 193  ARG  ARG  AR     0.000000        39.9480           0
     194 ARGN 194  ARG  ARG  AR     0.000000        39.9480           0
     195 ARGN 195  ARG  ARG  AR     0.000000        39.9480           0
     196 ARGN 196  ARG  ARG  AR     0.000000        39.9480           0
     197 ARGN 197  ARG  ARG  AR     0.000000        39.9480           0
     198 ARGN 198  ARG  ARG  AR     0.000000        39.9480           0
     199 ARGN 199  ARG  ARG  AR     0.000000        39.9480           0
     200 ARGN 200  ARG  ARG  AR     0.000000        39.9480           0
     201 ARGN 201  ARG  ARG  AR     0.000000        39.9480           0
     202 ARGN 202  ARG  ARG  AR     0.000000        39.9480           0
     203 ARGN 203  ARG  ARG  AR     0.000000        39.9480           0
     204 ARGN 204  ARG  ARG  AR     0.000000        39.9480           0
     205 ARGN 205  ARG  ARG  AR     0.000000        39.9480           0
     206 ARGN 206  ARG  ARG  AR     0.000000        39.9480           0
     207 ARGN 207  ARG  ARG  AR     0.000000        39.9480           0
     208 ARGN 208  ARG  ARG  AR     0.000000        39.9480           0
     209 ARGN 209  ARG  ARG  AR     0.000000        39.9480           0
     210 ARGN 210  ARG  ARG  AR     0.000000        39.9480           0
     211 ARGN 211  ARG  ARG  AR     0.000000        39.9480           0
     212 ARGN 212  ARG  ARG  AR     0.000000        39.9480           0
     213 ARGN 213  ARG  ARG  AR     0.000000        39.9480           0
     214 ARGN 214  ARG  ARG  AR     0.000000        39.9480           0
     215 ARGN 215  ARG  ARG  AR     0.000000        39.9480           0
     216 ARGN 216  ARG  ARG  AR     0.000000        39.9480           0
     217 ARGN 217  ARG  ARG  AR     0.000000        39.9480           0
     218 ARGN 218  ARG  ARG  AR     0.000000        39.9480           0
     219 ARGN 219  ARG  ARG  AR     0.000000        39.9480           0
     220 ARGN 220  ARG  ARG  AR     0.000000        39.9480           0
     221 ARGN 221  ARG  ARG  AR     0.000000        39.9480           0
     222 ARGN 222  ARG  ARG  AR     0.000000        39.9480           0
     223 ARGN 223  ARG  ARG  AR     0.000000        39.9480           0
     224 ARGN 224  ARG  ARG  AR     0.000000        39.9480           0
     225 ARGN 225  ARG  ARG  AR     0.000000        39.9480           0
     226 ARGN 226  ARG  ARG  AR     0.000000        39.9480           0
     227 ARGN 227  ARG  ARG  AR     0.000000        39.9480           0
     228 ARGN 228  ARG  ARG  AR     0.000000        39.9480           0
     229 ARGN 229  ARG  ARG  AR     0.000000        39.9480           0
     230 ARGN 230  ARG  ARG  AR     0.000000        39.9480           0
     231 ARGN 231  ARG  ARG  AR     0.000000        39.9480           0
     232 ARGN 232  ARG  ARG  AR     0.000000        39.9480           0
     233 ARGN 233  ARG  ARG  AR     0.000000        39.9480           0
     234 ARGN 234  ARG  ARG  AR     0.000000        39.9480           0
     235 ARGN 235  ARG  ARG  AR     0.000000        39.9480           0
     236 ARGN 236  ARG  ARG  AR     0.000000        39.9480           0
     237 ARGN 237  ARG  ARG  AR     0.000000        39.9480           0
     238 ARGN 238  ARG  ARG  AR     0.000000        39.9480           0
     239 ARGN 239  ARG  ARG  AR     0.000000        39.9480           0
     240 ARGN 240  ARG  ARG  AR     0.000000        39.9480           0
     241 ARGN 241  ARG  ARG  AR     0.000000        39.9480           0
     242 ARGN 242  ARG  ARG  AR     0.000000        39.9480           0
     243 ARGN 243  ARG  ARG  AR     0.000000        39.9480           0
     244 ARGN 244  ARG  ARG  AR     0.000000        39.9480           0
     245 ARGN 245  ARG  ARG  AR     0.000000        39.9480           0
     246 ARGN 246  ARG  ARG  AR     0.000000        39.9480           0
     247 ARGN 247  ARG  ARG  AR     0.000000        39.9480           0
     248 ARGN 248  ARG  ARG  AR     0.000000        39.9480           0
     249 ARGN 249  ARG  ARG  AR     0.000000        39.9480           0
     250 ARGN 250  ARG  ARG  AR     0.000000        39.9480           0
     251 ARGN 251  ARG  ARG  AR     0.000000        39.9480           0
     252 ARGN 252  ARG  ARG  AR     0.000000        39.9480           0
     253 ARGN 253  ARG  ARG  AR     0.000000        39.9480           0
     254 ARGN 254  ARG  ARG  AR     0.000000        39.9480           0
     255 ARGN 255  ARG  ARG  AR     0.000000        39.9480           0
     256 ARGN 256  ARG  ARG  AR     0.000000        39.9480           0
     257 ARGN 257  ARG  ARG  AR     0.000000        39.9480           0
     258 ARGN 258  ARG  ARG  AR     0.000000        39.9480           0
     259 ARGN 259  ARG  ARG  AR     0.000000        39.9480           0
     260 ARGN 260  ARG  ARG  AR     0.000000        39.9480           0
     261 ARGN 261  ARG  ARG  AR     0.000000        39.9480           0
     262 ARGN 262  ARG  ARG  AR     0.000000        39.9480           0
     263 ARGN 263  ARG  ARG  AR     0.000000        39.9480           0
     264 ARGN 264  ARG  ARG  AR     0.000000        39.9480           0
     265 ARGN 265  ARG  ARG  AR     0.000000        39.9480           0
     266 ARGN 266  ARG  ARG  AR     0.000000        39.9480           0
     267 ARGN 267  ARG  ARG  AR     0.000000        39.9480           0
     268 ARGN 268  ARG  ARG  AR     0.000000        39.9480           0
     269 ARGN 269  ARG  ARG  AR     0.000000        39.9480           0
     270 ARGN 270  ARG  ARG  AR     0.000000        39.9480           0
     271 ARGN 271  ARG  ARG  AR     0.000000        39.9480           0
     272 ARGN 272  ARG  ARG  AR     0.000000        39.9480           0
     273 ARGN 273  ARG  ARG  AR     0.000000        39.9480           0
     274 ARGN 274  ARG  ARG  AR     0.000000        39.9480           0
     275 ARGN 275  ARG  ARG  AR     0.000000        39.9480           0
     276 ARGN 276  ARG  ARG  AR     0.000000        39.9480           0
     277 ARGN 277  ARG  ARG  AR     0.000000        39.9480           0
     278 ARGN 278  ARG  ARG  AR     0.000000        39.9480           0
     279 ARGN 279  ARG  ARG  AR     0.000000        39.9480           0
     280 ARGN 280  ARG  ARG  AR     0.000000        39.9480           0
     281 ARGN 281  ARG  ARG  AR     0.000000        39.9480           0
     282 ARGN 282  ARG  ARG  AR     0.000000        39.9480           0
     283 ARGN 283  ARG  ARG  AR     0.000000        39.9480           0
     284 ARGN 284  ARG  ARG  AR     0.000000        39.9480           0
     285 ARGN 285  ARG  ARG  AR     0.000000        39.9480           0
     286 ARGN 286  ARG  ARG  AR     0.000000        39.9480           0
     287 ARGN 287  ARG  ARG  AR     0.000000        39.9480           0
     288 ARGN 288  ARG  ARG  AR     0.000000        39.9480           0
     289 ARGN 289  ARG  ARG  AR     0.000000        39.9480           0
     290 ARGN 290  ARG  ARG  AR     0.000000        39.9480           0
     291 ARGN 291  ARG  ARG  AR     0.000000        39.9480           0
     292 ARGN 292  ARG  ARG  AR     0.000000        39.9480           0
     293 ARGN 293  ARG  ARG  AR     0.000000        39.9480           0
     294 ARGN 294  ARG  ARG  AR     0.000000        39.9480           0
     295 ARGN 295  ARG  ARG  AR     0.000000        39.9480           0
     296 ARGN 296  ARG  ARG  AR     0.000000        39.9480           0
     297 ARGN 297  ARG  ARG  AR     0.000000        39.9480           0
     298 ARGN 298  ARG  ARG  AR     0.000000        39.9480           0
     299 ARGN 299  ARG  ARG  AR     0.000000        39.9480           0
     300 ARGN 300  ARG  ARG  AR     0.000000        39.9480           0
     301 ARGN 301  ARG  ARG  AR     0.000000        39.9480           0
     302 ARGN 302  ARG  ARG  AR     0.000000        39.9480           0
     303 ARGN 303  ARG  ARG  AR     0.000000        39.9480           0
     304 ARGN 304  ARG  ARG  AR     0.000000        39.9480           0
     305 ARGN 305  ARG  ARG  AR     0.000000        39.9480           0
     306 ARGN 306  ARG  ARG  AR     0.000000        39.9480           0
     307 ARGN 307  ARG  ARG  AR     0.000000        39.9480           0
     308 ARGN 308  ARG  ARG  AR     0.000000        39.9480           0
     309 ARGN 309  ARG  ARG  AR     0.000000        39.9480           0
     310 ARGN 310  ARG  ARG  AR     0.000000        39.9480           0
     311 ARGN 311  ARG  ARG  AR     0.000000        39.9480           0
     312 ARGN 312  ARG  ARG  AR     0.000000        39.9480           0
     313 ARGN 313  ARG  ARG  AR     0.000000        39.9480           0
     314 ARGN 314  ARG  ARG  AR     0.000000        39.9480           0
     315 ARGN 315  ARG  ARG  AR     0.000000        39.9480           0
     316 ARGN 316  ARG  ARG  AR     0.000000        39.9480           0
     317 ARGN 317  ARG  ARG  AR     0.000000        39.9480           0
     318 ARGN 318  ARG  ARG  AR     0.000000        39.9480           0
     319 ARGN 319  ARG  ARG  AR     0.000000        39.9480           0
     320 ARGN 320  ARG  ARG  AR     0.000000        39.9480           0
     321 ARGN 321  ARG  ARG  AR     0.000000        39.9480           0
     322 ARGN 322  ARG  ARG  AR     0.000000        39.9480           0
     323 ARGN 323  ARG  ARG  AR     0.000000        39.9480           0
     324 ARGN 324  ARG  ARG  AR     0.000000        39.9480           0
     325 ARGN 325  ARG  ARG  AR     0.000000        39.9480           0
     326 ARGN 326  ARG  ARG  AR     0.000000        39.9480           0
     327 ARGN 327  ARG  ARG  AR     0.000000        39.9480           0
     328 ARGN 328  ARG  ARG  AR     0.000000        39.9480           0
     329 ARGN 329  ARG  ARG  AR     0.000000        39.9480           0
     330 ARGN 330  ARG  ARG  AR     0.000000        39.9480           0
     331 ARGN 331  ARG  ARG  AR     0.000000        39.9480           0
     332 ARGN 332  ARG  ARG  AR     0.000000        39.9480           0
     333 ARGN 333  ARG  ARG  AR     0.000000        39.9480           0
     334 ARGN 334  ARG  ARG  AR     0.000000        39.9480           0
     335 ARGN 335  ARG  ARG  AR     0.000000        39.9480           0
     336 ARGN 336  ARG  ARG  AR     0.000000        39.9480           0
     337 ARGN 337  ARG  ARG  AR     0.000000        39.9480           0
     338 ARGN 338  ARG  ARG  AR     0.000000        39.9480           0
     339 ARGN 339  ARG  ARG  AR     0.000000        39.9480           0
     340 ARGN 340  ARG  ARG  AR     0.000000        39.9480           0
     341 ARGN 341  ARG  ARG  AR     0.000000        39.9480           0
     342 ARGN 342  ARG  ARG  AR     0.000000        39.9480           0
     343 ARGN 343  ARG  ARG  AR     0.000000        39.9480           0
     344 ARGN 344  ARG  ARG  AR     0.000000        39.9480           0
     345 ARGN 345  ARG  ARG  AR     0.000000        39.9480           0
     346 ARGN 346  ARG  ARG  AR     0.000000        39.9480           0
     347 ARGN 347  ARG  ARG  AR     0.000000        39.9480           0
     348 ARGN 348  ARG  ARG  AR     0.000000        39.9480           0
     349 ARGN 349  ARG  ARG  AR     0.000000        39.9480           0
     350 ARGN 350  ARG  ARG  AR     0.000000        39.9480           0
     351 ARGN 351  ARG  ARG  AR     0.000000        39.9480           0
     352 ARGN 352  ARG  ARG  AR     0.000000        39.9480           0
     353 ARGN 353  ARG  ARG  AR     0.000000        39.9480           0
     354 ARGN 354  ARG  ARG  AR     0.000000        39.9480           0
     355 ARGN 355  ARG  ARG  AR     0.000000        39.9480           0
     356 ARGN 356  ARG  ARG  AR     0.000000        39.9480           0
     357 ARGN 357  ARG  ARG  AR     0.000000        39.9480           0
     358 ARGN 358  ARG  ARG  AR     0.000000        39.9480           0
     359 ARGN 359  ARG  ARG  AR     0.000000        39.9480           0
     360 ARGN 360  ARG  ARG  AR     0.000000        39.9480           0
     361 ARGN 361  ARG  ARG  AR     0.000000        39.9480           0
     362 ARGN 362  ARG  ARG  AR     0.000000        39.9480           0
     363 ARGN 363  ARG  ARG  AR     0.000000        39.9480           0
     364 ARGN 364  ARG  ARG  AR     0.000000        39.9480           0
     365 ARGN 365  ARG  ARG  AR     0.000000        39.9480           0
     366 ARGN 366  ARG  ARG  AR     0.000000        39.9480           0
     367 ARGN 367  ARG  ARG  AR     0.000000        39.9480           0
     368 ARGN 368  ARG  ARG  AR     0.000000        39.9480           0
     369 ARGN 369  ARG  ARG  AR     0.000000        39.9480           0
     370 ARGN 370  ARG  ARG  AR     0.000000        39.9480           0
     371 ARGN 371  ARG  ARG  AR     0.000000        39.9480           0
     372 ARGN 372  ARG  ARG  AR     0.000000        39.9480           0
     373 ARGN 373  ARG  ARG  AR     0.000000        39.9480           0
     374 ARGN 374  ARG  ARG  AR     0.000000        39.9480           0
     375 ARGN 375  ARG  ARG  AR     0.000000        39.9480           0
     376 ARGN 376  ARG  ARG  AR     0.000000        39.9480           0
     377 ARGN 377  ARG  ARG  AR     0.000000        39.9480           0
     378 ARGN 378  ARG  ARG  AR     0.000000        39.9480           0
     379 ARGN 379  ARG  ARG  AR     0.000000        39.9480           0
     380 ARGN 380  ARG  ARG  AR     0.000000        39.9480           0
     381 ARGN 381  ARG  ARG  AR     0.000000        39.9480           0
     382 ARGN 382  ARG  ARG  AR     0.000000        39.9480           0
     383 ARGN 383  ARG  ARG  AR     0.000000        39.9480           0
     384 ARGN 384  ARG  ARG  AR     0.000000        39.9480           0
     385 ARGN 385  ARG  ARG  AR     0.000000        39.9480           0
     386 ARGN 386  ARG  ARG  AR     0.000000        39.9480           0
     387 ARGN 387  ARG  ARG  AR     0.000000        39.9480           0
     388 ARGN 388  ARG  ARG  AR     0.000000        39.9480           0
     389 ARGN 389  ARG  ARG  AR     0.000000        39.9480           0
     390 ARGN 390  ARG  ARG  AR     0.000000        39.9480           0
     391 ARGN 391  ARG  ARG  AR     0.000000        39.9480           0
     392 ARGN 392  ARG  ARG  AR     0.000000        39.9480           0
     393 ARGN 393  ARG  ARG  AR     0.000000        39.9480           0
     394 ARGN 394  ARG  ARG  AR     0.000000        39.9480           0
     395 ARGN 395  ARG  ARG  AR     0.000000        39.9480           0
     396 ARGN 396  ARG  ARG  AR     0.000000        39.9480           0
     397 ARGN 397  ARG  ARG  AR     0.000000        39.9480           0
     398 ARGN 398  ARG  ARG  AR     0.000000        39.9480           0
     399 ARGN 399  ARG  ARG  AR     0.000000        39.9480           0
     400 ARGN 400  ARG  ARG  AR     0.000000        39.9480           0
     401 ARGN 401  ARG  ARG  AR     0.000000        39.9480           0
     402 ARGN 402  ARG  ARG  AR     0.000000        39.9480           0
     403 ARGN 403  ARG  ARG  AR     0.000000        39.9480           0
     404 ARGN 404  ARG  ARG  AR     0.000000        39.9480           0
     405 ARGN 405  ARG  ARG  AR     0.000000        39.9480           0
     406 ARGN 406  ARG  ARG  AR     0.000000        39.9480           0
     407 ARGN 407  ARG  ARG  AR     0.000000        39.9480           0
     408 ARGN 408  ARG  ARG  AR     0.000000        39.9480           0
     409 ARGN 409  ARG  ARG  AR     0.000000        39.9480           0
     410 ARGN 410  ARG  ARG  AR     0.000000        39.9480           0
     411 ARGN 411  ARG  ARG  AR     0.000000        39.9480           0
     412 ARGN 412  ARG  ARG  AR     0.000000        39.9480           0
     413 ARGN 413  ARG  ARG  AR     0.000000        39.9480           0
     414 ARGN 414  ARG  ARG  AR     0.000000        39.9480           0
     415 ARGN 415  ARG  ARG  AR     0.000000        39.9480           0
     416 ARGN 416  ARG  ARG  AR     0.000000        39.9480           0
     417 ARGN 417  ARG  ARG  AR     0.000000        39.9480           0
     418 ARGN 418  ARG  ARG  AR     0.000000        39.9480           0
     419 ARGN 419  ARG  ARG  AR     0.000000        39.9480           0
     420 ARGN 420  ARG  ARG  AR     0.000000        39.9480           0
     421 ARGN 421  ARG  ARG  AR     0.000000        39.9480           0
     422 ARGN 422  ARG  ARG  AR     0.000000        39.9480           0
     423 ARGN 423  ARG  ARG  AR     0.000000        39.9480           0
     424 ARGN 424  ARG  ARG  AR     0.000000        39.9480           0
     425 ARGN 425  ARG  ARG  AR     0.000000        39.9480           0
     426 ARGN 426  ARG  ARG  AR     0.000000        39.9480           0
     427 ARGN 427  ARG  ARG  AR     0.000000        39.9480           0
     428 ARGN 428  ARG  ARG  AR     0.000000        39.9480           0
     429 ARGN 429  ARG  ARG  AR     0.000000        39.9480           0
     430 ARGN 430  ARG  ARG  AR     0.000000        39.9480           0
     431 ARGN 431  ARG  ARG  AR     0.000000        39.9480           0
     432 ARGN 432  ARG  ARG  AR     0.000000        39.9480           0
     433 ARGN 433  ARG  ARG  AR     0.000000        39.9480           0
     434 ARGN 434  ARG  ARG  AR     0.000000        39.9480           0
     435 ARGN 435  ARG  ARG  AR     0.000000        39.9480           0
     436 ARGN 436  ARG  ARG  AR     0.000000        39.9480           0
     437 ARGN 437  ARG  ARG  AR     0.000000        39.9480           0
     438 ARGN 438  ARG  ARG  AR     0.000000        39.9480           0
     439 ARGN 439  ARG  ARG  AR     0.000000        39.9480           0
     440 ARGN 440  ARG  ARG  AR     0.000000        39.9480           0
     441 ARGN 441  ARG  ARG  AR     0.000000        39.9480           0
     442 ARGN 442  ARG  ARG  AR     0.000000        39.9480           0
     443 ARGN 443  ARG  ARG  AR     0.000000        39.9480           0
     444 ARGN 444  ARG  ARG  AR     0.000000        39.9480           0
     445 ARGN 445  ARG  ARG  AR     0.000000        39.9480           0
     446 ARGN 446  ARG  ARG  AR     0.000000        39.9480           0
     447 ARGN 447  ARG  ARG  AR     0.000000        39.9480           0
     448 ARGN 448  ARG  ARG  AR     0.000000        39.9480           0
     449 ARGN 449  ARG  ARG  AR     0.000000        39.9480           0
     450 ARGN 450  ARG  ARG  AR     0.000000        39.9480           0
     451 ARGN 451  ARG  ARG  AR     0.000000        39.9480           0
     452 ARGN 452  ARG  ARG  AR     0.000000        39.9480           0
     453 ARGN 453  ARG  ARG  AR     0.000000        39.9480           0
     454 ARGN 454  ARG  ARG  AR     0.000000        39.9480           0
     455 ARGN 455  ARG  ARG  AR     0.000000        39.9480           0
     456 ARGN 456  ARG  ARG  AR     0.000000        39.9480           0
     457 ARGN 457  ARG  ARG  AR     0.000000        39.9480           0
     458 ARGN 458  ARG  ARG  AR     0.000000        39.9480           0
     459 ARGN 459  ARG  ARG  AR     0.000000        39.9480           0
     460 ARGN 460  ARG  ARG  AR     0.000000        39.9480           0
     461 ARGN 461  ARG  ARG  AR     0.000000        39.9480           0
     462 ARGN 462  ARG  ARG  AR     0.000000        39.9480           0
     463 ARGN 463  ARG  ARG  AR     0.000000        39.9480           0
     464 ARGN 464  ARG  ARG  AR     0.000000        39.9480           0
     465 ARGN 465  ARG  ARG  AR     0.000000        39.9480           0
     466 ARGN 466  ARG  ARG  AR     0.000000        39.9480           0
     467 ARGN 467  ARG  ARG  AR     0.000000        39.9480           0
     468 ARGN 468  ARG  ARG  AR     0.000000        39.9480           0
     469 ARGN 469  ARG  ARG  AR     0.000000        39.9480           0
     470 ARGN 470  ARG  ARG  AR     0.000000        39.9480           0
     471 ARGN 471  ARG  ARG  AR     0.000000        39.9480           0
     472 ARGN 472  ARG  ARG  AR     0.000000        39.9480           0
     473 ARGN 473  ARG  ARG  AR     0.000000        39.9480           0
     474 ARGN 474  ARG  ARG  AR     0.000000        39.9480           0
     475 ARGN 475  ARG  ARG  AR     0.000000        39.9480           0
     476 ARGN 476  ARG  ARG  AR     0.000000        39.9480           0
     477 ARGN 477  ARG  ARG  AR     0.000000        39.9480           0
     478 ARGN 478  ARG  ARG  AR     0.000000        39.9480           0
     479 ARGN 479  ARG  ARG  AR     0.000000        39.9480           0
     480 ARGN 480  ARG  ARG  AR     0.000000        39.9480           0
     481 ARGN 481  ARG  ARG  AR     0.000000        39.9480           0
     482 ARGN 482  ARG  ARG  AR     0.000000        39.9480           0
     483 ARGN 483  ARG  ARG  AR     0.000000        39.9480           0
     484 ARGN 484  ARG  ARG  AR     0.000000        39.9480           0
     485 ARGN 485  ARG  ARG  AR     0.000000        39.9480           0
     486 ARGN 486  ARG  ARG  AR     0.000000        39.9480           0
     487 ARGN 487  ARG  ARG  AR     0.000000        39.9480           0
     488 ARGN 488  ARG  ARG  AR     0.000000        39.9480           0
     489 ARGN 489  ARG  ARG  AR     0.000000        39.9480           0
     490 ARGN 490  ARG  ARG  AR     0.000000        39.9480           0
     491 ARGN 491  ARG  ARG  AR     0.000000        39.9480           0
     492 ARGN 492  ARG  ARG  AR     0.000000        39.9480           0
     493 ARGN 493  ARG  ARG  AR     0.000000        39.9480           0
     494 ARGN 494  ARG  ARG  AR     0.000000        39.9480           0
     495 ARGN 495  ARG  ARG  AR     0.000000        39.9480           0
     496 ARGN 496  ARG  ARG  AR     0.000000        39.9480           0
     497 ARGN 497  ARG  ARG  AR     0.000000        39.9480           0
     498 ARGN 498  ARG  ARG  AR     0.000000        39.9480           0
     499 ARGN 499  ARG  ARG  AR     0.000000        39.9480           0
     500 ARGN 500  ARG  ARG  AR     0.000000        39.9480           0
     501 ARGN 501  ARG  ARG  AR     0.000000        39.9480           0
     502 ARGN 502  ARG  ARG  AR     0.000000        39.9480           0
     503 ARGN 503  ARG  ARG  AR     0.000000        39.9480           0
     504 ARGN 504  ARG  ARG  AR     0.000000        39.9480           0
     505 ARGN 505  ARG  ARG  AR     0.000000        39.9480           0
     506 ARGN 506  ARG  ARG  AR     0.000000        39.9480           0
     507 ARGN 507  ARG  ARG  AR     0.000000        39.9480           0
     508 ARGN 508  ARG  ARG  AR     0.000000        39.9480           0
     509 ARGN 509  ARG  ARG  AR     0.000000        39.9480           0
     510 ARGN 510  ARG  ARG  AR     0.000000        39.9480           0
     511 ARGN 511  ARG  ARG  AR     0.000000        39.9480           0
     512 ARGN 512  ARG  ARG  AR     0.000000        39.9480           0
     513 ARGN 513  ARG  ARG  AR     0.000000        39.9480           0
     514 ARGN 514  ARG  ARG  AR     0.000000        39.9480           0
     515 ARGN 515  ARG  ARG  AR     0.000000        39.9480           0
     516 ARGN 516  ARG  ARG  AR     0.000000        39.9480           0
     517 ARGN 517  ARG  ARG  AR     0.000000        39.9480           0
     518 ARGN 518  ARG  ARG  AR     0.000000        39.9480           0
     519 ARGN 519  ARG  ARG  AR     0.000000        39.9480           0
     520 ARGN 520  ARG  ARG  AR     0.000000        39.9480           0
     521 ARGN 521  ARG  ARG  AR     0.000000        39.9480           0
     522 ARGN 522  ARG  ARG  AR     0.000000        39.9480           0
     523 ARGN 523  ARG  ARG  AR     0.000000        39.9480           0
     524 ARGN 524  ARG  ARG  AR     0.000000        39.9480           0
     525 ARGN 525  ARG  ARG  AR     0.000000        39.9480           0
     526 ARGN 526  ARG  ARG  AR     0.000000        39.9480           0
     527 ARGN 527  ARG  ARG  AR     0.000000        39.9480           0
     528 ARGN 528  ARG  ARG  AR     0.000000        39.9480           0
     529 ARGN 529  ARG  ARG  AR     0.000000        39.9480           0
     530 ARGN 530  ARG  ARG  AR     0.000000        39.9480           0
     531 ARGN 531  ARG  ARG  AR     0.000000        39.9480           0
     532 ARGN 532  ARG  ARG  AR     0.000000        39.9480           0
     533 ARGN 533  ARG  ARG  AR     0.000000        39.9480           0
     534 ARGN 534  ARG  ARG  AR     0.000000        39.9480           0
     535 ARGN 535  ARG  ARG  AR     0.000000        39.9480           0
     536 ARGN 536  ARG  ARG  AR     0.000000        39.9480           0
     537 ARGN 537  ARG  ARG  AR     0.000000        39.9480           0
     538 ARGN 538  ARG  ARG  AR     0.000000        39.9480           0
     539 ARGN 539  ARG  ARG  AR     0.000000        39.9480           0
     540 ARGN 540  ARG  ARG  AR     0.000000        39.9480           0
     541 ARGN 541  ARG  ARG  AR     0.000000        39.9480           0
     542 ARGN 542  ARG  ARG  AR     0.000000        39.9480           0
     543 ARGN 543  ARG  ARG  AR     0.000000        39.9480           0
     544 ARGN 544  ARG  ARG  AR     0.000000        39.9480           0
     545 ARGN 545  ARG  ARG  AR     0.000000        39.9480           0
     546 ARGN 546  ARG  ARG  AR     0.000000        39.9480           0
     547 ARGN 547  ARG  ARG  AR     0.000000        39.9480           0
     548 ARGN 548  ARG  ARG  AR     0.000000        39.9480           0
     549 ARGN 549  ARG  ARG  AR     0.000000        39.9480           0
     550 ARGN 550  ARG  ARG  AR     0.000000        39.9480           0
     551 ARGN 551  ARG  ARG  AR     0.000000        39.9480           0
     552 ARGN 552  ARG  ARG  AR     0.000000        39.9480           0
     553 ARGN 553  ARG  ARG  AR     0.000000        39.9480           0
     554 ARGN 554  ARG  ARG  AR     0.000000        39.9480           0
     555 ARGN 555  ARG  ARG  AR     0.000000        39.9480           0
     556 ARGN 556  ARG  ARG  AR     0.000000        39.9480           0
     557 ARGN 557  ARG  ARG  AR     0.000000        39.9480           0
     558 ARGN 558  ARG  ARG  AR     0.000000        39.9480           0
     559 ARGN 559  ARG  ARG  AR     0.000000        39.9480           0
     560 ARGN 560  ARG  ARG  AR     0.000000        39.9480           0
     561 ARGN 561  ARG  ARG  AR     0.000000        39.9480           0
     562 ARGN 562  ARG  ARG  AR     0.000000        39.9480           0
     563 ARGN 563  ARG  ARG  AR     0.000000        39.9480           0
     564 ARGN 564  ARG  ARG  AR     0.000000        39.9480           0
     565 ARGN 565  ARG  ARG  AR     0.000000        39.9480           0
     566 ARGN 566  ARG  ARG  AR     0.000000        39.9480           0
     567 ARGN 567  ARG  ARG  AR     0.000000        39.9480           0
     568 ARGN 568  ARG  ARG  AR     0.000000        39.9480           0
     569 ARGN 569  ARG  ARG  AR     0.000000        39.9480           0
     570 ARGN 570  ARG  ARG  AR     0.000000        39.9480           0
     571 ARGN 571  ARG  ARG  AR     0.000000        39.9480           0
     572 ARGN 572  ARG  ARG  AR     0.000000        39.9480           0
     573 ARGN 573  ARG  ARG  AR     0.000000        39.9480           0
     574 ARGN 574  ARG  ARG  AR     0.000000        39.9480           0
     575 ARGN 575  ARG  ARG  AR     0.000000        39.9480           0
     576 ARGN 576  ARG  ARG  AR     0.000000        39.9480           0
     577 ARGN 577  ARG  ARG  AR     0.000000        39.9480           0
     578 ARGN 578  ARG  ARG  AR     0.000000        39.9480           0
     579 ARGN 579  ARG  ARG  AR     0.000000        39.9480           0
     580 ARGN 580  ARG  ARG  AR     0.000000        39.9480           0
     581 ARGN 581  ARG  ARG  AR     0.000000        39.9480           0
     582 ARGN 582  ARG  ARG  AR     0.000000        39.9480           0
     583 ARGN 583  ARG  ARG  AR     0.000000        39.9480           0
     584 ARGN 584  ARG  ARG  AR     0.000000        39.9480           0
     585 ARGN 585  ARG  ARG  AR     0.000000        39.9480           0
     586 ARGN 586  ARG  ARG  AR     0.000000        39.9480           0
     587 ARGN 587  ARG  ARG  AR     0.000000        39.9480           0
     588 ARGN 588  ARG  ARG  AR     0.000000        39.9480           0
     589 ARGN 589  ARG  ARG  AR     0.000000        39.9480           0
     590 ARGN 590  ARG  ARG  AR     0.000000        39.9480           0
     591 ARGN 591  ARG  ARG  AR     0.000000        39.9480           0
     592 ARGN 592  ARG  ARG  AR     0.000000        39.9480           0
     593 ARGN 593  ARG  ARG  AR     0.000000        39.9480           0
     594 ARGN 594  ARG  ARG  AR     0.000000        39.9480           0
     595 ARGN 595  ARG  ARG  AR     0.000000        39.9480           0
     596 ARGN 596  ARG  ARG  AR     0.000000        39.9480           0
     597 ARGN 597  ARG  ARG  AR     0.000000        39.9480           0
     598 ARGN 598  ARG  ARG  AR     0.000000        39.9480           0
     599 ARGN 599  ARG  ARG  AR     0.000000        39.9480           0
     600 ARGN 600  ARG  ARG  AR     0.000000        39.9480           0
     601 ARGN 601  ARG  ARG  AR     0.000000        39.9480           0
     602 ARGN 602  ARG  ARG  AR     0.000000        39.9480           0
     603 ARGN 603  ARG  ARG  AR     0.000000        39.9480           0
     604 ARGN 604  ARG  ARG  AR     0.000000        39.9480           0
     605 ARGN 605  ARG  ARG  AR     0.000000        39.9480           0
     606 ARGN 606  ARG  ARG  AR     0.000000        39.9480           0
     607 ARGN 607  ARG  ARG  AR     0.000000        39.9480           0
     608 ARGN 608  ARG  ARG  AR     0.000000        39.9480           0
     609 ARGN 609  ARG  ARG  AR     0.000000        39.9480           0
     610 ARGN 610  ARG  ARG  AR     0.000000        39.9480           0
     611 ARGN 611  ARG  ARG  AR     0.000000        39.9480           0
     612 ARGN 612  ARG  ARG  AR     0.000000        39.9480           0
     613 ARGN 613  ARG  ARG  AR     0.000000        39.9480           0
     614 ARGN 614  ARG  ARG  AR     0.000000        39.9480           0
     615 ARGN 615  ARG  ARG  AR     0.000000        39.9480           0
     616 ARGN 616  ARG  ARG  AR     0.000000        39.9480           0
     617 ARGN 617  ARG  ARG  AR     0.000000        39.9480           0
     618 ARGN 618  ARG  ARG  AR     0.000000        39.9480           0
     619 ARGN 619  ARG  ARG  AR     0.000000        39.9480           0
     620 ARGN 620  ARG  ARG  AR     0.000000        39.9480           0
     621 ARGN 621  ARG  ARG  AR     0.000000        39.9480           0
     622 ARGN 622  ARG  ARG  AR     0.000000        39.9480           0
     623 ARGN 623  ARG  ARG  AR     0.000000        39.9480           0
     624 ARGN 624  ARG  ARG  AR     0.000000        39.9480           0
     625 ARGN 625  ARG  ARG  AR     0.000000        39.9480           0
     626 ARGN 626  ARG  ARG  AR     0.000000        39.9480           0
     627 ARGN 627  ARG  ARG  AR     0.000000        39.9480           0
     628 ARGN 628  ARG  ARG  AR     0.000000        39.9480           0
     629 ARGN 629  ARG  ARG  AR     0.000000        39.9480           0
     630 ARGN 630  ARG  ARG  AR     0.000000        39.9480           0
     631 ARGN 631  ARG  ARG  AR     0.000000        39.9480           0
     632 ARGN 632  ARG  ARG  AR     0.000000        39.9480           0
     633 ARGN 633  ARG  ARG  AR     0.000000        39.9480           0
     634 ARGN 634  ARG  ARG  AR     0.000000        39.9480           0
     635 ARGN 635  ARG  ARG  AR     0.000000        39.9480           0
     636 ARGN 636  ARG  ARG  AR     0.000000        39.9480           0
     637 ARGN 637  ARG  ARG  AR     0.000000        39.9480           0
     638 ARGN 638  ARG  ARG  AR     0.000000        39.9480           0
     639 ARGN 639  ARG  ARG  AR     0.000000        39.9480           0
     640 ARGN 640  ARG  ARG  AR     0.000000        39.9480           0
     641 ARGN 641  ARG  ARG  AR     0.000000        39.9480           0
     642 ARGN 642  ARG  ARG  AR     0.000000        39.9480           0
     643 ARGN 643  ARG  ARG  AR     0.000000        39.9480           0
     644 ARGN 644  ARG  ARG  AR     0.000000        39.9480           0
     645 ARGN 645  ARG  ARG  AR     0.000000        39.9480           0
     646 ARGN 646  ARG  ARG  AR     0.000000        39.9480           0
     647 ARGN 647  ARG  ARG  AR     0.000000        39.9480           0
     648 ARGN 648  ARG  ARG  AR     0.000000        39.9480           0
     649 ARGN 649  ARG  ARG  AR     0.000000        39.9480           0
     650 ARGN 650  ARG  ARG  AR     0.000000        39.9480           0
     651 ARGN 651  ARG  ARG  AR     0.000000        39.9480           0
     652 ARGN 652  ARG  ARG  AR     0.000000        39.9480           0
     653 ARGN 653  ARG  ARG  AR     0.000000        39.9480           0
     654 ARGN 654  ARG  ARG  AR     0.000000        39.9480           0
     655 ARGN 655  ARG  ARG  AR     0.000000        39.9480           0
     656 ARGN 656  ARG  ARG  AR     0.000000        39.9480           0
     657 ARGN 657  ARG  ARG  AR     0.000000        39.9480           0
     658 ARGN 658  ARG  ARG  AR     0.000000        39.9480           0
     659 ARGN 659  ARG  ARG  AR     0.000000        39.9480           0
     660 ARGN 660  ARG  ARG  AR     0.000000        39.9480           0
     661 ARGN 661  ARG  ARG  AR     0.000000        39.9480           0
     662 ARGN 662  ARG  ARG  AR     0.000000        39.9480           0
     663 ARGN 663  ARG  ARG  AR     0.000000        39.9480           0
     664 ARGN 664  ARG  ARG  AR     0.000000        39.9480           0
     665 ARGN 665  ARG  ARG  AR     0.000000        39.9480           0
     666 ARGN 666  ARG  ARG  AR     0.000000        39.9480           0
     667 ARGN 667  ARG  ARG  AR     0.000000        39.9480           0
     668 ARGN 668  ARG  ARG  AR     0.000000        39.9480           0
     669 ARGN 669  ARG  ARG  AR     0.000000        39.9480           0
     670 ARGN 670  ARG  ARG  AR     0.000000        39.9480           0
     671 ARGN 671  ARG  ARG  AR     0.000000        39.9480           0
     672 ARGN 672  ARG  ARG  AR     0.000000        39.9480           0
     673 ARGN 673  ARG  ARG  AR     0.000000        39.9480           0
     674 ARGN 674  ARG  ARG  AR     0.000000        39.9480           0
     675 ARGN 675  ARG  ARG  AR     0.000000        39.9480           0
     676 ARGN 676  ARG  ARG  AR     0.000000        39.9480           0
     677 ARGN 677  ARG  ARG  AR     0.000000        39.9480           0
     678 ARGN 678  ARG  ARG  AR     0.000000        39.9480           0
     679 ARGN 679  ARG  ARG  AR     0.000000        39.9480           0
     680 ARGN 680  ARG  ARG  AR     0.000000        39.9480           0
     681 ARGN 681  ARG  ARG  AR     0.000000        39.9480           0
     682 ARGN 682  ARG  ARG  AR     0.000000        39.9480           0
     683 ARGN 683  ARG  ARG  AR     0.000000        39.9480           0
     684 ARGN 684  ARG  ARG  AR     0.000000        39.9480           0
     685 ARGN 685  ARG  ARG  AR     0.000000        39.9480           0
     686 ARGN 686  ARG  ARG  AR     0.000000        39.9480           0
     687 ARGN 687  ARG  ARG  AR     0.000000        39.9480           0
     688 ARGN 688  ARG  ARG  AR     0.000000        39.9480           0
     689 ARGN 689  ARG  ARG  AR     0.000000        39.9480           0
     690 ARGN 690  ARG  ARG  AR     0.000000        39.9480           0
     691 ARGN 691  ARG  ARG  AR     0.000000        39.9480           0
     692 ARGN 692  ARG  ARG  AR     0.000000        39.9480           0
     693 ARGN 693  ARG  ARG  AR     0.000000        39.9480           0
     694 ARGN 694  ARG  ARG  AR     0.000000        39.9480           0
     695 ARGN 695  ARG  ARG  AR     0.000000        39.9480           0
     696 ARGN 696  ARG  ARG  AR     0.000000        39.9480           0
     697 ARGN 697  ARG  ARG  AR     0.000000        39.9480           0
     698 ARGN 698  ARG  ARG  AR     0.000000        39.9480           0
     699 ARGN 699  ARG  ARG  AR     0.000000        39.9480           0
     700 ARGN 700  ARG  ARG  AR     0.000000        39.9480           0
     701 ARGN 701  ARG  ARG  AR     0.000000        39.9480           0
     702 ARGN 702  ARG  ARG  AR     0.000000        39.9480           0
     703 ARGN 703  ARG  ARG  AR     0.000000        39.9480           0
     704 ARGN 704  ARG  ARG  AR     0.000000        39.9480           0
     705 ARGN 705  ARG  ARG  AR     0.000000        39.9480           0
     706 ARGN 706  ARG  ARG  AR     0.000000        39.9480           0
     707 ARGN 707  ARG  ARG  AR     0.000000        39.9480           0
     708 ARGN 708  ARG  ARG  AR     0.000000        39.9480           0
     709 ARGN 709  ARG  ARG  AR     0.000000        39.9480           0
     710 ARGN 710  ARG  ARG  AR     0.000000        39.9480           0
     711 ARGN 711  ARG  ARG  AR     0.000000        39.9480           0
     712 ARGN 712  ARG  ARG  AR     0.000000        39.9480           0
     713 ARGN 713  ARG  ARG  AR     0.000000        39.9480           0
     714 ARGN 714  ARG  ARG  AR     0.000000        39.9480           0
     715 ARGN 715  ARG  ARG  AR     0.000000        39.9480           0
     716 ARGN 716  ARG  ARG  AR     0.000000        39.9480           0
     717 ARGN 717  ARG  ARG  AR     0.000000        39.9480           0
     718 ARGN 718  ARG  ARG  AR     0.000000        39.9480           0
     719 ARGN 719  ARG  ARG  AR     0.000000        39.9480           0
     720 ARGN 720  ARG  ARG  AR     0.000000        39.9480           0
     721 ARGN 721  ARG  ARG  AR     0.000000        39.9480           0
     722 ARGN 722  ARG  ARG  AR     0.000000        39.9480           0
     723 ARGN 723  ARG  ARG  AR     0.000000        39.9480           0
     724 ARGN 724  ARG  ARG  AR     0.000000        39.9480           0
     725 ARGN 725  ARG  ARG  AR     0.000000        39.9480           0
     726 ARGN 726  ARG  ARG  AR     0.000000        39.9480           0
     727 ARGN 727  ARG  ARG  AR     0.000000        39.9480           0
     728 ARGN 728  ARG  ARG  AR     0.000000        39.9480           0
     729 ARGN 729  ARG  ARG  AR     0.000000        39.9480           0
     730 ARGN 730  ARG  ARG  AR     0.000000        39.9480           0
     731 ARGN 731  ARG  ARG  AR     0.000000        39.9480           0
     732 ARGN 732  ARG  ARG  AR     0.000000        39.9480           0
     733 ARGN 733  ARG  ARG  AR     0.000000        39.9480           0
     734 ARGN 734  ARG  ARG  AR     0.000000        39.9480           0
     735 ARGN 735  ARG  ARG  AR     0.000000        39.9480           0
     736 ARGN 736  ARG  ARG  AR     0.000000        39.9480           0
     737 ARGN 737  ARG  ARG  AR     0.000000        39.9480           0
     738 ARGN 738  ARG  ARG  AR     0.000000        39.9480           0
     739 ARGN 739  ARG  ARG  AR     0.000000        39.9480           0
     740 ARGN 740  ARG  ARG  AR     0.000000        39.9480           0
     741 ARGN 741  ARG  ARG  AR     0.000000        39.9480           0
     742 ARGN 742  ARG  ARG  AR     0.000000        39.9480           0
     743 ARGN 743  ARG  ARG  AR     0.000000        39.9480           0
     744 ARGN 744  ARG  ARG  AR     0.000000        39.9480           0
     745 ARGN 745  ARG  ARG  AR     0.000000        39.9480           0
     746 ARGN 746  ARG  ARG  AR     0.000000        39.9480           0
     747 ARGN 747  ARG  ARG  AR     0.000000        39.9480           0
     748 ARGN 748  ARG  ARG  AR     0.000000        39.9480           0
     749 ARGN 749  ARG  ARG  AR     0.000000        39.9480           0
     750 ARGN 750  ARG  ARG  AR     0.000000        39.9480           0
     751 ARGN 751  ARG  ARG  AR     0.000000        39.9480           0
     752 ARGN 752  ARG  ARG  AR     0.000000        39.9480           0
     753 ARGN 753  ARG  ARG  AR     0.000000        39.9480           0
     754 ARGN 754  ARG  ARG  AR     0.000000        39.9480           0
     755 ARGN 755  ARG  ARG  AR     0.000000        39.9480           0
     756 ARGN 756  ARG  ARG  AR     0.000000        39.9480           0
     757 ARGN 757  ARG  ARG  AR     0.000000        39.9480           0
     758 ARGN 758  ARG  ARG  AR     0.000000        39.9480           0
     759 ARGN 759  ARG  ARG  AR     0.000000        39.9480           0
     760 ARGN 760  ARG  ARG  AR     0.000000        39.9480           0
     761 ARGN 761  ARG  ARG  AR     0.000000        39.9480           0
     762 ARGN 762  ARG  ARG  AR     0.000000        39.9480           0
     763 ARGN 763  ARG  ARG  AR     0.000000        39.9480           0
     764 ARGN 764  ARG  ARG  AR     0.000000        39.9480           0
     765 ARGN 765  ARG  ARG  AR     0.000000        39.9480           0
     766 ARGN 766  ARG  ARG  AR     0.000000        39.9480           0
     767 ARGN 767  ARG  ARG  AR     0.000000        39.9480           0
     768 ARGN 768  ARG  ARG  AR     0.000000        39.9480           0
     769 ARGN 769  ARG  ARG  AR     0.000000        39.9480           0
     770 ARGN 770  ARG  ARG  AR     0.000000        39.9480           0
     771 ARGN 771  ARG  ARG  AR     0.000000        39.9480           0
     772 ARGN 772  ARG  ARG  AR     0.000000        39.9480           0
     773 ARGN 773  ARG  ARG  AR     0.000000        39.9480           0
     774 ARGN 774  ARG  ARG  AR     0.000000        39.9480           0
     775 ARGN 775  ARG  ARG  AR     0.000000        39.9480           0
     776 ARGN 776  ARG  ARG  AR     0.000000        39.9480           0
     777 ARGN 777  ARG  ARG  AR     0.000000        39.9480           0
     778 ARGN 778  ARG  ARG  AR     0.000000        39.9480           0
     779 ARGN 779  ARG  ARG  AR     0.000000        39.9480           0
     780 ARGN 780  ARG  ARG  AR     0.000000        39.9480           0
     781 ARGN 781  ARG  ARG  AR     0.000000        39.9480           0
     782 ARGN 782  ARG  ARG  AR     0.000000        39.9480           0
     783 ARGN 783  ARG  ARG  AR     0.000000        39.9480           0
     784 ARGN 784  ARG  ARG  AR     0.000000        39.9480           0
     785 ARGN 785  ARG  ARG  AR     0.000000        39.9480           0
     786 ARGN 786  ARG  ARG  AR     0.000000        39.9480           0
     787 ARGN 787  ARG  ARG  AR     0.000000        39.9480           0
     788 ARGN 788  ARG  ARG  AR     0.000000        39.9480           0
     789 ARGN 789  ARG  ARG  AR     0.000000        39.9480           0
     790 ARGN 790  ARG  ARG  AR     0.000000        39.9480           0
     791 ARGN 791  ARG  ARG  AR     0.000000        39.9480           0
     792 ARGN 792  ARG  ARG  AR     0.000000        39.9480           0
     793 ARGN 793  ARG  ARG  AR     0.000000        39.9480           0
     794 ARGN 794  ARG  ARG  AR     0.000000        39.9480           0
     795 ARGN 795  ARG  ARG  AR     0.000000        39.9480           0
     796 ARGN 796  ARG  ARG  AR     0.000000        39.9480           0
     797 ARGN 797  ARG  ARG  AR     0.000000        39.9480           0
     798 ARGN 798  ARG  ARG  AR     0.000000        39.9480           0
     799 ARGN 799  ARG  ARG  AR     0.000000        39.9480           0
     800 ARGN 800  ARG  ARG  AR     0.000000        39.9480           0
     801 ARGN 801  ARG  ARG  AR     0.000000        39.9480           0
     802 ARGN 802  ARG  ARG  AR     0.000000        39.9480           0
     803 ARGN 803  ARG  ARG  AR     0.000000        39.9480           0
     804 ARGN 804  ARG  ARG  AR     0.000000        39.9480           0
     805 ARGN 805  ARG  ARG  AR     0.000000        39.9480           0
     806 ARGN 806  ARG  ARG  AR     0.000000        39.9480           0
     807 ARGN 807  ARG  ARG  AR     0.000000        39.9480           0
     808 ARGN 808  ARG  ARG  AR     0.000000        39.9480           0
     809 ARGN 809  ARG  ARG  AR     0.000000        39.9480           0
     810 ARGN 810  ARG  ARG  AR     0.000000        39.9480           0
     811 ARGN 811  ARG  ARG  AR     0.000000        39.9480           0
     812 ARGN 812  ARG  ARG  AR     0.000000        39.9480           0
     813 ARGN 813  ARG  ARG  AR     0.000000        39.9480           0
     814 ARGN 814  ARG  ARG  AR     0.000000        39.9480           0
     815 ARGN 815  ARG  ARG  AR     0.000000        39.9480           0
     816 ARGN 816  ARG  ARG  AR     0.000000        39.9480           0
     817 ARGN 817  ARG  ARG  AR     0.000000        39.9480           0
     818 ARGN 818  ARG  ARG  AR     0.000000        39.9480           0
     819 ARGN 819  ARG  ARG  AR     0.000000        39.9480           0
     820 ARGN 820  ARG  ARG  AR     0.000000        39.9480           0
     821 ARGN 821  ARG  ARG  AR     0.000000        39.9480           0
     822 ARGN 822  ARG  ARG  AR     0.000000        39.9480           0
     823 ARGN 823  ARG  ARG  AR     0.000000        39.9480           0
     824 ARGN 824  ARG  ARG  AR     0.000000        39.9480           0
     825 ARGN 825  ARG  ARG  AR     0.000000        39.9480           0
     826 ARGN 826  ARG  ARG  AR     0.000000        39.9480           0
     827 ARGN 827  ARG  ARG  AR     0.000000        39.9480           0
     828 ARGN 828  ARG  ARG  AR     0.000000        39.9480           0
     829 ARGN 829  ARG  ARG  AR     0.000000        39.9480           0
     830 ARGN 830  ARG  ARG  AR     0.000000        39.9480           0
     831 ARGN 831  ARG  ARG  AR     0.000000        39.9480           0
     832 ARGN 832  ARG  ARG  AR     0.000000        39.9480           0
     833 ARGN 833  ARG  ARG  AR     0.000000        39.9480           0
     834 ARGN 834  ARG  ARG  AR     0.000000        39.9480           0
     835 ARGN 835  ARG  ARG  AR     0.000000        39.9480           0
     836 ARGN 836  ARG  ARG  AR     0.000000        39.9480           0
     837 ARGN 837  ARG  ARG  AR     0.000000        39.9480           0
     838 ARGN 838  ARG  ARG  AR     0.000000        39.9480           0
     839 ARGN 839  ARG  ARG  AR     0.000000        39.9480           0
     840 ARGN 840  ARG  ARG  AR     0.000000        39.9480           0
     841 ARGN 841  ARG  ARG  AR     0.000000        39.9480           0
     842 ARGN 842  ARG  ARG  AR     0.000000        39.9480           0
     843 ARGN 843  ARG  ARG  AR     0.000000        39.9480           0
     844 ARGN 844  ARG  ARG  AR     0.000000        39.9480           0
     845 ARGN 845  ARG  ARG  AR     0.000000        39.9480           0
     846 ARGN 846  ARG  ARG  AR     0.000000        39.9480           0
     847 ARGN 847  ARG  ARG  AR     0.000000        39.9480           0
     848 ARGN 848  ARG  ARG  AR     0.000000        39.9480           0
     849 ARGN 849  ARG  ARG  AR     0.000000        39.9480           0
     850 ARGN 850  ARG  ARG  AR     0.000000        39.9480           0
     851 ARGN 851  ARG  ARG  AR     0.000000        39.9480           0
     852 ARGN 852  ARG  ARG  AR     0.000000        39.9480           0
     853 ARGN 853  ARG  ARG  AR     0.000000        39.9480           0
     854 ARGN 854  ARG  ARG  AR     0.000000        39.9480           0
     855 ARGN 855  ARG  ARG  AR     0.000000        39.9480           0
     856 ARGN 856  ARG  ARG  AR     0.000000        39.9480           0
     857 ARGN 857  ARG  ARG  AR     0.000000        39.9480           0
     858 ARGN 858  ARG  ARG  AR     0.000000        39.9480           0
     859 ARGN 859  ARG  ARG  AR     0.000000        39.9480           0
     860 ARGN 860  ARG  ARG  AR     0.000000        39.9480           0
     861 ARGN 861  ARG  ARG  AR     0.000000        39.9480           0
     862 ARGN 862  ARG  ARG  AR     0.000000        39.9480           0
     863 ARGN 863  ARG  ARG  AR     0.000000        39.9480           0
     864 ARGN 864  ARG  ARG  AR     0.000000        39.9480           0
     865 ARGN 865  ARG  ARG  AR     0.000000        39.9480           0
     866 ARGN 866  ARG  ARG  AR     0.000000        39.9480           0
     867 ARGN 867  ARG  ARG  AR     0.000000        39.9480           0
     868 ARGN 868  ARG  ARG  AR     0.000000        39.9480           0
     869 ARGN 869  ARG  ARG  AR     0.000000        39.9480           0
     870 ARGN 870  ARG  ARG  AR     0.000000        39.9480           0
     871 ARGN 871  ARG  ARG  AR     0.000000        39.9480           0
     872 ARGN 872  ARG  ARG  AR     0.000000        39.9480           0
     873 ARGN 873  ARG  ARG  AR     0.000000        39.9480           0
     874 ARGN 874  ARG  ARG  AR     0.000000        39.9480           0
     875 ARGN 875  ARG  ARG  AR     0.000000        39.9480           0
     876 ARGN 876  ARG  ARG  AR     0.000000        39.9480           0
     877 ARGN 877  ARG  ARG  AR     0.000000        39.9480           0
     878 ARGN 878  ARG  ARG  AR     0.000000        39.9480           0
     879 ARGN 879  ARG  ARG  AR     0.000000        39.9480           0
     880 ARGN 880  ARG  ARG  AR     0.000000        39.9480           0
     881 ARGN 881  ARG  ARG  AR     0.000000        39.9480           0
     882 ARGN 882  ARG  ARG  AR     0.000000        39.9480           0
     883 ARGN 883  ARG  ARG  AR     0.000000        39.9480           0
     884 ARGN 884  ARG  ARG  AR     0.000000        39.9480           0
     885 ARGN 885  ARG  ARG  AR     0.000000        39.9480           0
     886 ARGN 886  ARG  ARG  AR     0.000000        39.9480           0
     887 ARGN 887  ARG  ARG  AR     0.000000        39.9480           0
     888 ARGN 888  ARG  ARG  AR     0.000000        39.9480           0
     889 ARGN 889  ARG  ARG  AR     0.000000        39.9480           0
     890 ARGN 890  ARG  ARG  AR     0.000000        39.9480           0
     891 ARGN 891  ARG  ARG  AR     0.000000        39.9480           0
     892 ARGN 892  ARG  ARG  AR     0.000000        39.9480           0
     893 ARGN 893  ARG  ARG  AR     0.000000        39.9480           0
     894 ARGN 894  ARG  ARG  AR     0.000000        39.9480           0
     895 ARGN 895  ARG  ARG  AR     0.000000        39.9480           0
     896 ARGN 896  ARG  ARG  AR     0.000000        39.9480           0
     897 ARGN 897  ARG  ARG  AR     0.000000        39.9480           0
     898 ARGN 898  ARG  ARG  AR     0.000000        39.9480           0
     899 ARGN 899  ARG  ARG  AR     0.000000        39.9480           0
     900 ARGN 900  ARG  ARG  AR     0.000000        39.9480           0
     901 ARGN 901  ARG  ARG  AR     0.000000        39.9480           0
     902 ARGN 902  ARG  ARG  AR     0.000000        39.9480           0
     903 ARGN 903  ARG  ARG  AR     0.000000        39.9480           0
     904 ARGN 904  ARG  ARG  AR     0.000000        39.9480           0
     905 ARGN 905  ARG  ARG  AR     0.000000        39.9480           0
     906 ARGN 906  ARG  ARG  AR     0.000000        39.9480           0
     907 ARGN 907  ARG  ARG  AR     0.000000        39.9480           0
     908 ARGN 908  ARG  ARG  AR     0.000000        39.9480           0
     909 ARGN 909  ARG  ARG  AR     0.000000        39.9480           0
     910 ARGN 910  ARG  ARG  AR     0.000000        39.9480           0
     911 ARGN 911  ARG  ARG  AR     0.000000        39.9480           0
     912 ARGN 912  ARG  ARG  AR     0.000000        39.9480           0
     913 ARGN 913  ARG  ARG  AR     0.000000        39.9480           0
     914 ARGN 914  ARG  ARG  AR     0.000000        39.9480           0
     915 ARGN 915  ARG  ARG  AR     0.000000        39.9480           0
     916 ARGN 916  ARG  ARG  AR     0.000000        39.9480           0
     917 ARGN 917  ARG  ARG  AR     0.000000        39.9480           0
     918 ARGN 918  ARG  ARG  AR     0.000000        39.9480           0
     919 ARGN 919  ARG  ARG  AR     0.000000        39.9480           0
     920 ARGN 920  ARG  ARG  AR     0.000000        39.9480           0
     921 ARGN 921  ARG  ARG  AR     0.000000        39.9480           0
     922 ARGN 922  ARG  ARG  AR     0.000000        39.9480           0
     923 ARGN 923  ARG  ARG  AR     0.000000        39.9480           0
     924 ARGN 924  ARG  ARG  AR     0.000000        39.9480           0
     925 ARGN 925  ARG  ARG  AR     0.000000        39.9480           0
     926 ARGN 926  ARG  ARG  AR     0.000000        39.9480           0
     927 ARGN 927  ARG  ARG  AR     0.000000        39.9480           0
     928 ARGN 928  ARG  ARG  AR     0.000000        39.9480           0
     929 ARGN 929  ARG  ARG  AR     0.000000        39.9480           0
     930 ARGN 930  ARG  ARG  AR     0.000000        39.9480           0
     931 ARGN 931  ARG  ARG  AR     0.000000        39.9480           0
     932 ARGN 932  ARG  ARG  AR     0.000000        39.9480           0
     933 ARGN 933  ARG  ARG  AR     0.000000        39.9480           0
     934 ARGN 934  ARG  ARG  AR     0.000000        39.9480           0
     935 ARGN 935  ARG  ARG  AR     0.000000        39.9480           0
     936 ARGN 936  ARG  ARG  AR     0.000000        39.9480           0
     937 ARGN 937  ARG  ARG  AR     0.000000        39.9480           0
     938 ARGN 938  ARG  ARG  AR     0.000000        39.9480           0
     939 ARGN 939  ARG  ARG  AR     0.000000        39.9480           0
     940 ARGN 940  ARG  ARG  AR     0.000000        39.9480           0
     941 ARGN 941  ARG  ARG  AR     0.000000        39.9480           0
     942 ARGN 942  ARG  ARG  AR     0.000000        39.9480           0
     943 ARGN 943  ARG  ARG  AR     0.000000        39.9480           0
     944 ARGN 944  ARG  ARG  AR     0.000000        39.9480           0
     945 ARGN 945  ARG  ARG  AR     0.000000        39.9480           0
     946 ARGN 946  ARG  ARG  AR     0.000000        39.9480           0
     947 ARGN 947  ARG  ARG  AR     0.000000        39.9480           0
     948 ARGN 948  ARG  ARG  AR     0.000000        39.9480           0
     949 ARGN 949  ARG  ARG  AR     0.000000        39.9480           0
     950 ARGN 950  ARG  ARG  AR     0.000000        39.9480           0
     951 ARGN 951  ARG  ARG  AR     0.000000        39.9480           0
     952 ARGN 952  ARG  ARG  AR     0.000000        39.9480           0
     953 ARGN 953  ARG  ARG  AR     0.000000        39.9480           0
     954 ARGN 954  ARG  ARG  AR     0.000000        39.9480           0
     955 ARGN 955  ARG  ARG  AR     0.000000        39.9480           0
     956 ARGN 956  ARG  ARG  AR     0.000000        39.9480           0
     957 ARGN 957  ARG  ARG  AR     0.000000        39.9480           0
     958 ARGN 958  ARG  ARG  AR     0.000000        39.9480           0
     959 ARGN 959  ARG  ARG  AR     0.000000        39.9480           0
     960 ARGN 960  ARG  ARG  AR     0.000000        39.9480           0
     961 ARGN 961  ARG  ARG  AR     0.000000        39.9480           0
     962 ARGN 962  ARG  ARG  AR     0.000000        39.9480           0
     963 ARGN 963  ARG  ARG  AR     0.000000        39.9480           0
     964 ARGN 964  ARG  ARG  AR     0.000000        39.9480           0
     965 ARGN 965  ARG  ARG  AR     0.000000        39.9480           0
     966 ARGN 966  ARG  ARG  AR     0.000000        39.9480           0
     967 ARGN 967  ARG  ARG  AR     0.000000        39.9480           0
     968 ARGN 968  ARG  ARG  AR     0.000000        39.9480           0
     969 ARGN 969  ARG  ARG  AR     0.000000        39.9480           0
     970 ARGN 970  ARG  ARG  AR     0.000000        39.9480           0
     971 ARGN 971  ARG  ARG  AR     0.000000        39.9480           0
     972 ARGN 972  ARG  ARG  AR     0.000000        39.9480           0
     973 ARGN 973  ARG  ARG  AR     0.000000        39.9480           0
     974 ARGN 974  ARG  ARG  AR     0.000000        39.9480           0
     975 ARGN 975  ARG  ARG  AR     0.000000        39.9480           0
     976 ARGN 976  ARG  ARG  AR     0.000000        39.9480           0
     977 ARGN 977  ARG  ARG  AR     0.000000        39.9480           0
     978 ARGN 978  ARG  ARG  AR     0.000000        39.9480           0
     979 ARGN 979  ARG  ARG  AR     0.000000        39.9480           0
     980 ARGN 980  ARG  ARG  AR     0.000000        39.9480           0
     981 ARGN 981  ARG  ARG  AR     0.000000        39.9480           0
     982 ARGN 982  ARG  ARG  AR     0.000000        39.9480           0
     983 ARGN 983  ARG  ARG  AR     0.000000        39.9480           0
     984 ARGN 984  ARG  ARG  AR     0.000000        39.9480           0
     985 ARGN 985  ARG  ARG  AR     0.000000        39.9480           0
     986 ARGN 986  ARG  ARG  AR     0.000000        39.9480           0
     987 ARGN 987  ARG  ARG  AR     0.000000        39.9480           0
     988 ARGN 988  ARG  ARG  AR     0.000000        39.9480           0
     989 ARGN 989  ARG  ARG  AR     0.000000        39.9480           0
     990 ARGN 990  ARG  ARG  AR     0.000000        39.9480           0
     991 ARGN 991  ARG  ARG  AR     0.000000        39.9480           0
     992 ARGN 992  ARG  ARG  AR     0.000000        39.9480           0
     993 ARGN 993  ARG  ARG  AR     0.000000        39.9480           0
     994 ARGN 994  ARG  ARG  AR     0.000000        39.9480           0
     995 ARGN 995  ARG  ARG  AR     0.000000        39.9480           0
     996 ARGN 996  ARG  ARG  AR     0.000000        39.9480           0
     997 ARGN 997  ARG  ARG  AR     0.000000        39.9480           0
     998 ARGN 998  ARG  ARG  AR     0.000000        39.9480           0
     999 ARGN 999  ARG  ARG  AR     0.000000        39.9480           0
    1000 ARGN 1000 ARG  ARG  AR     0.000000        39.9480           0
    1001 ARGN 1001 ARG  ARG  AR     0.000000        39.9480           0
    1002 ARGN 1002 ARG  ARG  AR     0.000000        39.9480           0
    1003 ARGN 1003 ARG  ARG  AR     0.000000        39.9480           0
    1004 ARGN 1004 ARG  ARG  AR     0.000000        39.9480           0
    1005 ARGN 1005 ARG  ARG  AR     0.000000        39.9480           0
    1006 ARGN 1006 ARG  ARG  AR     0.000000        39.9480           0
    1007 ARGN 1007 ARG  ARG  AR     0.000000        39.9480           0
    1008 ARGN 1008 ARG  ARG  AR     0.000000        39.9480           0
    1009 ARGN 1009 ARG  ARG  AR     0.000000        39.9480           0
    1010 ARGN 1010 ARG  ARG  AR     0.000000        39.9480           0
    1011 ARGN 1011 ARG  ARG  AR     0.000000        39.9480           0
    1012 ARGN 1012 ARG  ARG  AR     0.000000        39.9480           0
    1013 ARGN 1013 ARG  ARG  AR     0.000000        39.9480           0
    1014 ARGN 1014 ARG  ARG  AR     0.000000        39.9480           0
    1015 ARGN 1015 ARG  ARG  AR     0.000000        39.9480           0
    1016 ARGN 1016 ARG  ARG  AR     0.000000        39.9480           0
    1017 ARGN 1017 ARG  ARG  AR     0.000000        39.9480           0
    1018 ARGN 1018 ARG  ARG  AR     0.000000        39.9480           0
    1019 ARGN 1019 ARG  ARG  AR     0.000000        39.9480           0
    1020 ARGN 1020 ARG  ARG  AR     0.000000        39.9480           0
    1021 ARGN 1021 ARG  ARG  AR     0.000000        39.9480           0
    1022 ARGN 1022 ARG  ARG  AR     0.000000        39.9480           0
    1023 ARGN 1023 ARG  ARG  AR     0.000000        39.9480           0
    1024 ARGN 1024 ARG  ARG  AR     0.000000        39.9480           0
    1025 ARGN 1025 ARG  ARG  AR     0.000000        39.9480           0
    1026 ARGN 1026 ARG  ARG  AR     0.000000        39.9480           0
    1027 ARGN 1027 ARG  ARG  AR     0.000000        39.9480           0
    1028 ARGN 1028 ARG  ARG  AR     0.000000        39.9480           0
    1029 ARGN 1029 ARG  ARG  AR     0.000000        39.9480           0
    1030 ARGN 1030 ARG  ARG  AR     0.000000        39.9480           0
    1031 ARGN 1031 ARG  ARG  AR     0.000000        39.9480           0
    1032 ARGN 1032 ARG  ARG  AR     0.000000        39.9480           0
    1033 ARGN 1033 ARG  ARG  AR     0.000000        39.9480           0
    1034 ARGN 1034 ARG  ARG  AR     0.000000        39.9480           0
    1035 ARGN 1035 ARG  ARG  AR     0.000000        39.9480           0
    1036 ARGN 1036 ARG  ARG  AR     0.000000        39.9480           0
    1037 ARGN 1037 ARG  ARG  AR     0.000000        39.9480           0
    1038 ARGN 1038 ARG  ARG  AR     0.000000        39.9480           0
    1039 ARGN 1039 ARG  ARG  AR     0.000000        39.9480           0
    1040 ARGN 1040 ARG  ARG  AR     0.000000        39.9480           0
    1041 ARGN 1041 ARG  ARG  AR     0.000000        39.9480           0
    1042 ARGN 1042 ARG  ARG  AR     0.000000        39.9480           0
    1043 ARGN 1043 ARG  ARG  AR     0.000000        39.9480           0
    1044 ARGN 1044 ARG  ARG  AR     0.000000        39.9480           0
    1045 ARGN 1045 ARG  ARG  AR     0.000000        39.9480           0
    1046 ARGN 1046 ARG  ARG  AR     0.000000        39.9480           0
    1047 ARGN 1047 ARG  ARG  AR     0.000000        39.9480           0
    1048 ARGN 1048 ARG  ARG  AR     0.000000        39.9480           0
    1049 ARGN 1049 ARG  ARG  AR     0.000000        39.9480           0
    1050 ARGN 1050 ARG  ARG  AR     0.000000        39.9480           0
    1051 ARGN 1051 ARG  ARG  AR     0.000000        39.9480           0
    1052 ARGN 1052 ARG  ARG  AR     0.000000        39.9480           0
    1053 ARGN 1053 ARG  ARG  AR     0.000000        39.9480           0
    1054 ARGN 1054 ARG  ARG  AR     0.000000        39.9480           0
    1055 ARGN 1055 ARG  ARG  AR     0.000000        39.9480           0
    1056 ARGN 1056 ARG  ARG  AR     0.000000        39.9480           0
    1057 ARGN 1057 ARG  ARG  AR     0.000000        39.9480           0
    1058 ARGN 1058 ARG  ARG  AR     0.000000        39.9480           0
    1059 ARGN 1059 ARG  ARG  AR     0.000000        39.9480           0
    1060 ARGN 1060 ARG  ARG  AR     0.000000        39.9480           0
    1061 ARGN 1061 ARG  ARG  AR     0.000000        39.9480           0
    1062 ARGN 1062 ARG  ARG  AR     0.000000        39.9480           0
    1063 ARGN 1063 ARG  ARG  AR     0.000000        39.9480           0
    1064 ARGN 1064 ARG  ARG  AR     0.000000        39.9480           0
    1065 ARGN 1065 ARG  ARG  AR     0.000000        39.9480           0
    1066 ARGN 1066 ARG  ARG  AR     0.000000        39.9480           0
    1067 ARGN 1067 ARG  ARG  AR     0.000000        39.9480           0
    1068 ARGN 1068 ARG  ARG  AR     0.000000        39.9480           0
    1069 ARGN 1069 ARG  ARG  AR     0.000000        39.9480           0
    1070 ARGN 1070 ARG  ARG  AR     0.000000        39.9480           0
    1071 ARGN 1071 ARG  ARG  AR     0.000000        39.9480           0
    1072 ARGN 1072 ARG  ARG  AR     0.000000        39.9480           0
    1073 ARGN 1073 ARG  ARG  AR     0.000000        39.9480           0
    1074 ARGN 1074 ARG  ARG  AR     0.000000        39.9480           0
    1075 ARGN 1075 ARG  ARG  AR     0.000000        39.9480           0
    1076 ARGN 1076 ARG  ARG  AR     0.000000        39.9480           0
    1077 ARGN 1077 ARG  ARG  AR     0.000000        39.9480           0
    1078 ARGN 1078 ARG  ARG  AR     0.000000        39.9480           0
    1079 ARGN 1079 ARG  ARG  AR     0.000000        39.9480           0
    1080 ARGN 1080 ARG  ARG  AR     0.000000        39.9480           0
    1081 ARGN 1081 ARG  ARG  AR     0.000000        39.9480           0
    1082 ARGN 1082 ARG  ARG  AR     0.000000        39.9480           0
    1083 ARGN 1083 ARG  ARG  AR     0.000000        39.9480           0
    1084 ARGN 1084 ARG  ARG  AR     0.000000        39.9480           0
    1085 ARGN 1085 ARG  ARG  AR     0.000000        39.9480           0
    1086 ARGN 1086 ARG  ARG  AR     0.000000        39.9480           0
    1087 ARGN 1087 ARG  ARG  AR     0.000000        39.9480           0
    1088 ARGN 1088 ARG  ARG  AR     0.000000        39.9480           0
    1089 ARGN 1089 ARG  ARG  AR     0.000000        39.9480           0
    1090 ARGN 1090 ARG  ARG  AR     0.000000        39.9480           0
    1091 ARGN 1091 ARG  ARG  AR     0.000000        39.9480           0
    1092 ARGN 1092 ARG  ARG  AR     0.000000        39.9480           0
    1093 ARGN 1093 ARG  ARG  AR     0.000000        39.9480           0
    1094 ARGN 1094 ARG  ARG  AR     0.000000        39.9480           0
    1095 ARGN 1095 ARG  ARG  AR     0.000000        39.9480           0
    1096 ARGN 1096 ARG  ARG  AR     0.000000        39.9480           0
    1097 ARGN 1097 ARG  ARG  AR     0.000000        39.9480           0
    1098 ARGN 1098 ARG  ARG  AR     0.000000        39.9480           0
    1099 ARGN 1099 ARG  ARG  AR     0.000000        39.9480           0
    1100 ARGN 1100 ARG  ARG  AR     0.000000        39.9480           0
    1101 ARGN 1101 ARG  ARG  AR     0.000000        39.9480           0
    1102 ARGN 1102 ARG  ARG  AR     0.000000        39.9480           0
    1103 ARGN 1103 ARG  ARG  AR     0.000000        39.9480           0
    1104 ARGN 1104 ARG  ARG  AR     0.000000        39.9480           0
    1105 ARGN 1105 ARG  ARG  AR     0.000000        39.9480           0
    1106 ARGN 1106 ARG  ARG  AR     0.000000        39.9480           0
    1107 ARGN 1107 ARG  ARG  AR     0.000000        39.9480           0
    1108 ARGN 1108 ARG  ARG  AR     0.000000        39.9480           0
    1109 ARGN 1109 ARG  ARG  AR     0.000000        39.9480           0
    1110 ARGN 1110 ARG  ARG  AR     0.000000        39.9480           0
    1111 ARGN 1111 ARG  ARG  AR     0.000000        39.9480           0
    1112 ARGN 1112 ARG  ARG  AR     0.000000        39.9480           0
    1113 ARGN 1113 ARG  ARG  AR     0.000000        39.9480           0
    1114 ARGN 1114 ARG  ARG  AR     0.000000        39.9480           0
    1115 ARGN 1115 ARG  ARG  AR     0.000000        39.9480           0
    1116 ARGN 1116 ARG  ARG  AR     0.000000        39.9480           0
    1117 ARGN 1117 ARG  ARG  AR     0.000000        39.9480           0
    1118 ARGN 1118 ARG  ARG  AR     0.000000        39.9480           0
    1119 ARGN 1119 ARG  ARG  AR     0.000000        39.9480           0
    1120 ARGN 1120 ARG  ARG  AR     0.000000        39.9480           0
    1121 ARGN 1121 ARG  ARG  AR     0.000000        39.9480           0
    1122 ARGN 1122 ARG  ARG  AR     0.000000        39.9480           0
    1123 ARGN 1123 ARG  ARG  AR     0.000000        39.9480           0
    1124 ARGN 1124 ARG  ARG  AR     0.000000        39.9480           0
    1125 ARGN 1125 ARG  ARG  AR     0.000000        39.9480           0
    1126 ARGN 1126 ARG  ARG  AR     0.000000        39.9480           0
    1127 ARGN 1127 ARG  ARG  AR     0.000000        39.9480           0
    1128 ARGN 1128 ARG  ARG  AR     0.000000        39.9480           0
    1129 ARGN 1129 ARG  ARG  AR     0.000000        39.9480           0
    1130 ARGN 1130 ARG  ARG  AR     0.000000        39.9480           0
    1131 ARGN 1131 ARG  ARG  AR     0.000000        39.9480           0
    1132 ARGN 1132 ARG  ARG  AR     0.000000        39.9480           0
    1133 ARGN 1133 ARG  ARG  AR     0.000000        39.9480           0
    1134 ARGN 1134 ARG  ARG  AR     0.000000        39.9480           0
    1135 ARGN 1135 ARG  ARG  AR     0.000000        39.9480           0
    1136 ARGN 1136 ARG  ARG  AR     0.000000        39.9480           0
    1137 ARGN 1137 ARG  ARG  AR     0.000000        39.9480           0
    1138 ARGN 1138 ARG  ARG  AR     0.000000        39.9480           0
    1139 ARGN 1139 ARG  ARG  AR     0.000000        39.9480           0
    1140 ARGN 1140 ARG  ARG  AR     0.000000        39.9480           0
    1141 ARGN 1141 ARG  ARG  AR     0.000000        39.9480           0
    1142 ARGN 1142 ARG  ARG  AR     0.000000        39.9480           0
    1143 ARGN 1143 ARG  ARG  AR     0.000000        39.9480           0
    1144 ARGN 1144 ARG  ARG  AR     0.000000        39.9480           0
    1145 ARGN 1145 ARG  ARG  AR     0.000000        39.9480           0
    1146 ARGN 1146 ARG  ARG  AR     0.000000        39.9480           0
    1147 ARGN 1147 ARG  ARG  AR     0.000000        39.9480           0
    1148 ARGN 1148 ARG  ARG  AR     0.000000        39.9480           0
    1149 ARGN 1149 ARG  ARG  AR     0.000000        39.9480           0
    1150 ARGN 1150 ARG  ARG  AR     0.000000        39.9480           0
    1151 ARGN 1151 ARG  ARG  AR     0.000000        39.9480           0
    1152 ARGN 1152 ARG  ARG  AR     0.000000        39.9480           0
    1153 ARGN 1153 ARG  ARG  AR     0.000000        39.9480           0
    1154 ARGN 1154 ARG  ARG  AR     0.000000        39.9480           0
    1155 ARGN 1155 ARG  ARG  AR     0.000000        39.9480           0
    1156 ARGN 1156 ARG  ARG  AR     0.000000        39.9480           0
    1157 ARGN 1157 ARG  ARG  AR     0.000000        39.9480           0
    1158 ARGN 1158 ARG  ARG  AR     0.000000        39.9480           0
    1159 ARGN 1159 ARG  ARG  AR     0.000000        39.9480           0
    1160 ARGN 1160 ARG  ARG  AR     0.000000        39.9480           0
    1161 ARGN 1161 ARG  ARG  AR     0.000000        39.9480           0
    1162 ARGN 1162 ARG  ARG  AR     0.000000        39.9480           0
    1163 ARGN 1163 ARG  ARG  AR     0.000000        39.9480           0
    1164 ARGN 1164 ARG  ARG  AR     0.000000        39.9480           0
    1165 ARGN 1165 ARG  ARG  AR     0.000000        39.9480           0
    1166 ARGN 1166 ARG  ARG  AR     0.000000        39.9480           0
    1167 ARGN 1167 ARG  ARG  AR     0.000000        39.9480           0
    1168 ARGN 1168 ARG  ARG  AR     0.000000        39.9480           0
    1169 ARGN 1169 ARG  ARG  AR     0.000000        39.9480           0
    1170 ARGN 1170 ARG  ARG  AR     0.000000        39.9480           0
    1171 ARGN 1171 ARG  ARG  AR     0.000000        39.9480           0
    1172 ARGN 1172 ARG  ARG  AR     0.000000        39.9480           0
    1173 ARGN 1173 ARG  ARG  AR     0.000000        39.9480           0
    1174 ARGN 1174 ARG  ARG  AR     0.000000        39.9480           0
    1175 ARGN 1175 ARG  ARG  AR     0.000000        39.9480           0
    1176 ARGN 1176 ARG  ARG  AR     0.000000        39.9480           0
    1177 ARGN 1177 ARG  ARG  AR     0.000000        39.9480           0
    1178 ARGN 1178 ARG  ARG  AR     0.000000        39.9480           0
    1179 ARGN 1179 ARG  ARG  AR     0.000000        39.9480           0
    1180 ARGN 1180 ARG  ARG  AR     0.000000        39.9480           0
    1181 ARGN 1181 ARG  ARG  AR     0.000000        39.9480           0
    1182 ARGN 1182 ARG  ARG  AR     0.000000        39.9480           0
    1183 ARGN 1183 ARG  ARG  AR     0.000000        39.9480           0
    1184 ARGN 1184 ARG  ARG  AR     0.000000        39.9480           0
    1185 ARGN 1185 ARG  ARG  AR     0.000000        39.9480           0
    1186 ARGN 1186 ARG  ARG  AR     0.000000        39.9480           0
    1187 ARGN 1187 ARG  ARG  AR     0.000000        39.9480           0
    1188 ARGN 1188 ARG  ARG  AR     0.000000        39.9480           0
    1189 ARGN 1189 ARG  ARG  AR     0.000000        39.9480           0
    1190 ARGN 1190 ARG  ARG  AR     0.000000        39.9480           0
    1191 ARGN 1191 ARG  ARG  AR     0.000000        39.9480           0
    1192 ARGN 1192 ARG  ARG  AR     0.000000        39.9480           0
    1193 ARGN 1193 ARG  ARG  AR     0.000000        39.9480           0
    1194 ARGN 1194 ARG  ARG  AR     0.000000        39.9480           0
    1195 ARGN 1195 ARG  ARG  AR     0.000000        39.9480           0
    1196 ARGN 1196 ARG  ARG  AR     0.000000        39.9480           0
    1197 ARGN 1197 ARG  ARG  AR     0.000000        39.9480           0
    1198 ARGN 1198 ARG  ARG  AR     0.000000        39.9480           0
    1199 ARGN 1199 ARG  ARG  AR     0.000000        39.9480           0
    1200 ARGN 1200 ARG  ARG  AR     0.000000        39.9480           0
    1201 ARGN 1201 ARG  ARG  AR     0.000000        39.9480           0
    1202 ARGN 1202 ARG  ARG  AR     0.000000        39.9480           0
    1203 ARGN 1203 ARG  ARG  AR     0.000000        39.9480           0
    1204 ARGN 1204 ARG  ARG  AR     0.000000        39.9480           0
    1205 ARGN 1205 ARG  ARG  AR     0.000000        39.9480           0
    1206 ARGN 1206 ARG  ARG  AR     0.000000        39.9480           0
    1207 ARGN 1207 ARG  ARG  AR     0.000000        39.9480           0
    1208 ARGN 1208 ARG  ARG  AR     0.000000        39.9480           0
    1209 ARGN 1209 ARG  ARG  AR     0.000000        39.9480           0
    1210 ARGN 1210 ARG  ARG  AR     0.000000        39.9480           0
    1211 ARGN 1211 ARG  ARG  AR     0.000000        39.9480           0
    1212 ARGN 1212 ARG  ARG  AR     0.000000        39.9480           0
    1213 ARGN 1213 ARG  ARG  AR     0.000000        39.9480           0
    1214 ARGN 1214 ARG  ARG  AR     0.000000        39.9480           0
    1215 ARGN 1215 ARG  ARG  AR     0.000000        39.9480           0
    1216 ARGN 1216 ARG  ARG  AR     0.000000        39.9480           0
    1217 ARGN 1217 ARG  ARG  AR     0.000000        39.9480           0
    1218 ARGN 1218 ARG  ARG  AR     0.000000        39.9480           0
    1219 ARGN 1219 ARG  ARG  AR     0.000000        39.9480           0
    1220 ARGN 1220 ARG  ARG  AR     0.000000        39.9480           0
    1221 ARGN 1221 ARG  ARG  AR     0.000000        39.9480           0
    1222 ARGN 1222 ARG  ARG  AR     0.000000        39.9480           0
    1223 ARGN 1223 ARG  ARG  AR     0.000000        39.9480           0
    1224 ARGN 1224 ARG  ARG  AR     0.000000        39.9480           0
    1225 ARGN 1225 ARG  ARG  AR     0.000000        39.9480           0
    1226 ARGN 1226 ARG  ARG  AR     0.000000        39.9480           0
    1227 ARGN 1227 ARG  ARG  AR     0.000000        39.9480           0
    1228 ARGN 1228 ARG  ARG  AR     0.000000        39.9480           0
    1229 ARGN 1229 ARG  ARG  AR     0.000000        39.9480           0
    1230 ARGN 1230 ARG  ARG  AR     0.000000        39.9480           0
    1231 ARGN 1231 ARG  ARG  AR     0.000000        39.9480           0
    1232 ARGN 1232 ARG  ARG  AR     0.000000        39.9480           0
    1233 ARGN 1233 ARG  ARG  AR     0.000000        39.9480           0
    1234 ARGN 1234 ARG  ARG  AR     0.000000        39.9480           0
    1235 ARGN 1235 ARG  ARG  AR     0.000000        39.9480           0
    1236 ARGN 1236 ARG  ARG  AR     0.000000        39.9480           0
    1237 ARGN 1237 ARG  ARG  AR     0.000000        39.9480           0
    1238 ARGN 1238 ARG  ARG  AR     0.000000        39.9480           0
    1239 ARGN 1239 ARG  ARG  AR     0.000000        39.9480           0
    1240 ARGN 1240 ARG  ARG  AR     0.000000        39.9480           0
    1241 ARGN 1241 ARG  ARG  AR     0.000000        39.9480           0
    1242 ARGN 1242 ARG  ARG  AR     0.000000        39.9480           0
    1243 ARGN 1243 ARG  ARG  AR     0.000000        39.9480           0
    1244 ARGN 1244 ARG  ARG  AR     0.000000        39.9480           0
    1245 ARGN 1245 ARG  ARG  AR     0.000000        39.9480           0
    1246 ARGN 1246 ARG  ARG  AR     0.000000        39.9480           0
    1247 ARGN 1247 ARG  ARG  AR     0.000000        39.9480           0
    1248 ARGN 1248 ARG  ARG  AR     0.000000        39.9480           0
    1249 ARGN 1249 ARG  ARG  AR     0.000000        39.9480           0
    1250 ARGN 1250 ARG  ARG  AR     0.000000        39.9480           0
    1251 ARGN 1251 ARG  ARG  AR     0.000000        39.9480           0
    1252 ARGN 1252 ARG  ARG  AR     0.000000        39.9480           0
    1253 ARGN 1253 ARG  ARG  AR     0.000000        39.9480           0
    1254 ARGN 1254 ARG  ARG  AR     0.000000        39.9480           0
    1255 ARGN 1255 ARG  ARG  AR     0.000000        39.9480           0
    1256 ARGN 1256 ARG  ARG  AR     0.000000        39.9480           0
    1257 ARGN 1257 ARG  ARG  AR     0.000000        39.9480           0
    1258 ARGN 1258 ARG  ARG  AR     0.000000        39.9480           0
    1259 ARGN 1259 ARG  ARG  AR     0.000000        39.9480           0
    1260 ARGN 1260 ARG  ARG  AR     0.000000        39.9480           0
    1261 ARGN 1261 ARG  ARG  AR     0.000000        39.9480           0
    1262 ARGN 1262 ARG  ARG  AR     0.000000        39.9480           0
    1263 ARGN 1263 ARG  ARG  AR     0.000000        39.9480           0
    1264 ARGN 1264 ARG  ARG  AR     0.000000        39.9480           0
    1265 ARGN 1265 ARG  ARG  AR     0.000000        39.9480           0
    1266 ARGN 1266 ARG  ARG  AR     0.000000        39.9480           0
    1267 ARGN 1267 ARG  ARG  AR     0.000000        39.9480           0
    1268 ARGN 1268 ARG  ARG  AR     0.000000        39.9480           0
    1269 ARGN 1269 ARG  ARG  AR     0.000000        39.9480           0
    1270 ARGN 1270 ARG  ARG  AR     0.000000        39.9480           0
    1271 ARGN 1271 ARG  ARG  AR     0.000000        39.9480           0
    1272 ARGN 1272 ARG  ARG  AR     0.000000        39.9480           0
    1273 ARGN 1273 ARG  ARG  AR     0.000000        39.9480           0
    1274 ARGN 1274 ARG  ARG  AR     0.000000        39.9480           0
    1275 ARGN 1275 ARG  ARG  AR     0.000000        39.9480           0
    1276 ARGN 1276 ARG  ARG  AR     0.000000        39.9480           0
    1277 ARGN 1277 ARG  ARG  AR     0.000000        39.9480           0
    1278 ARGN 1278 ARG  ARG  AR     0.000000        39.9480           0
    1279 ARGN 1279 ARG  ARG  AR     0.000000        39.9480           0
    1280 ARGN 1280 ARG  ARG  AR     0.000000        39.9480           0
    1281 ARGN 1281 ARG  ARG  AR     0.000000        39.9480           0
    1282 ARGN 1282 ARG  ARG  AR     0.000000        39.9480           0
    1283 ARGN 1283 ARG  ARG  AR     0.000000        39.9480           0
    1284 ARGN 1284 ARG  ARG  AR     0.000000        39.9480           0
    1285 ARGN 1285 ARG  ARG  AR     0.000000        39.9480           0
    1286 ARGN 1286 ARG  ARG  AR     0.000000        39.9480           0
    1287 ARGN 1287 ARG  ARG  AR     0.000000        39.9480           0
    1288 ARGN 1288 ARG  ARG  AR     0.000000        39.9480           0
    1289 ARGN 1289 ARG  ARG  AR     0.000000        39.9480           0
    1290 ARGN 1290 ARG  ARG  AR     0.000000        39.9480           0
    1291 ARGN 1291 ARG  ARG  AR     0.000000        39.9480           0
    1292 ARGN 1292 ARG  ARG  AR     0.000000        39.9480           0
    1293 ARGN 1293 ARG  ARG  AR     0.000000        39.9480           0
    1294 ARGN 1294 ARG  ARG  AR     0.000000        39.9480           0
    1295 ARGN 1295 ARG  ARG  AR     0.000000        39.9480           0
    1296 ARGN 1296 ARG  ARG  AR     0.000000        39.9480           0
    1297 ARGN 1297 ARG  ARG  AR     0.000000        39.9480           0
    1298 ARGN 1298 ARG  ARG  AR     0.000000        39.9480           0
    1299 ARGN 1299 ARG  ARG  AR     0.000000        39.9480           0
    1300 ARGN 1300 ARG  ARG  AR     0.000000        39.9480           0
    1301 ARGN 1301 ARG  ARG  AR     0.000000        39.9480           0
    1302 ARGN 1302 ARG  ARG  AR     0.000000        39.9480           0
    1303 ARGN 1303 ARG  ARG  AR     0.000000        39.9480           0
    1304 ARGN 1304 ARG  ARG  AR     0.000000        39.9480           0
    1305 ARGN 1305 ARG  ARG  AR     0.000000        39.9480           0
    1306 ARGN 1306 ARG  ARG  AR     0.000000        39.9480           0
    1307 ARGN 1307 ARG  ARG  AR     0.000000        39.9480           0
    1308 ARGN 1308 ARG  ARG  AR     0.000000        39.9480           0
    1309 ARGN 1309 ARG  ARG  AR     0.000000        39.9480           0
    1310 ARGN 1310 ARG  ARG  AR     0.000000        39.9480           0
    1311 ARGN 1311 ARG  ARG  AR     0.000000        39.9480           0
    1312 ARGN 1312 ARG  ARG  AR     0.000000        39.9480           0
    1313 ARGN 1313 ARG  ARG  AR     0.000000        39.9480           0
    1314 ARGN 1314 ARG  ARG  AR     0.000000        39.9480           0
    1315 ARGN 1315 ARG  ARG  AR     0.000000        39.9480           0
    1316 ARGN 1316 ARG  ARG  AR     0.000000        39.9480           0
    1317 ARGN 1317 ARG  ARG  AR     0.000000        39.9480           0
    1318 ARGN 1318 ARG  ARG  AR     0.000000        39.9480           0
    1319 ARGN 1319 ARG  ARG  AR     0.000000        39.9480           0
    1320 ARGN 1320 ARG  ARG  AR     0.000000        39.9480           0
    1321 ARGN 1321 ARG  ARG  AR     0.000000        39.9480           0
    1322 ARGN 1322 ARG  ARG  AR     0.000000        39.9480           0
    1323 ARGN 1323 ARG  ARG  AR     0.000000        39.9480           0
    1324 ARGN 1324 ARG  ARG  AR     0.000000        39.9480           0
    1325 ARGN 1325 ARG  ARG  AR     0.000000        39.9480           0
    1326 ARGN 1326 ARG  ARG  AR     0.000000        39.9480           0
    1327 ARGN 1327 ARG  ARG  AR     0.000000        39.9480           0
    1328 ARGN 1328 ARG  ARG  AR     0.000000        39.9480           0
    1329 ARGN 1329 ARG  ARG  AR     0.000000        39.9480           0
    1330 ARGN 1330 ARG  ARG  AR     0.000000        39.9480           0
    1331 ARGN 1331 ARG  ARG  AR     0.000000        39.9480           0
    1332 ARGN 1332 ARG  ARG  AR     0.000000        39.9480           0
    1333 ARGN 1333 ARG  ARG  AR     0.000000        39.9480           0
    1334 ARGN 1334 ARG  ARG  AR     0.000000        39.9480           0
    1335 ARGN 1335 ARG  ARG  AR     0.000000        39.9480           0
    1336 ARGN 1336 ARG  ARG  AR     0.000000        39.9480           0
    1337 ARGN 1337 ARG  ARG  AR     0.000000        39.9480           0
    1338 ARGN 1338 ARG  ARG  AR     0.000000        39.9480           0
    1339 ARGN 1339 ARG  ARG  AR     0.000000        39.9480           0
    1340 ARGN 1340 ARG  ARG  AR     0.000000        39.9480           0
    1341 ARGN 1341 ARG  ARG  AR     0.000000        39.9480           0
    1342 ARGN 1342 ARG  ARG  AR     0.000000        39.9480           0
    1343 ARGN 1343 ARG  ARG  AR     0.000000        39.9480           0
    1344 ARGN 1344 ARG  ARG  AR     0.000000        39.9480           0
    1345 ARGN 1345 ARG  ARG  AR     0.000000        39.9480           0
    1346 ARGN 1346 ARG  ARG  AR     0.000000        39.9480           0
    1347 ARGN 1347 ARG  ARG  AR     0.000000        39.9480           0
    1348 ARGN 1348 ARG  ARG  AR     0.000000        39.9480           0
    1349 ARGN 1349 ARG  ARG  AR     0.000000        39.9480           0
    1350 ARGN 1350 ARG  ARG  AR     0.000000        39.9480           0
    1351 ARGN 1351 ARG  ARG  AR     0.000000        39.9480           0
    1352 ARGN 1352 ARG  ARG  AR     0.000000        39.9480           0
    1353 ARGN 1353 ARG  ARG  AR     0.000000        39.9480           0
    1354 ARGN 1354 ARG  ARG  AR     0.000000        39.9480           0
    1355 ARGN 1355 ARG  ARG  AR     0.000000        39.9480           0
    1356 ARGN 1356 ARG  ARG  AR     0.000000        39.9480           0
    1357 ARGN 1357 ARG  ARG  AR     0.000000        39.9480           0
    1358 ARGN 1358 ARG  ARG  AR     0.000000        39.9480           0
    1359 ARGN 1359 ARG  ARG  AR     0.000000        39.9480           0
    1360 ARGN 1360 ARG  ARG  AR     0.000000        39.9480           0
    1361 ARGN 1361 ARG  ARG  AR     0.000000        39.9480           0
    1362 ARGN 1362 ARG  ARG  AR     0.000000        39.9480           0
    1363 ARGN 1363 ARG  ARG  AR     0.000000        39.9480           0
    1364 ARGN 1364 ARG  ARG  AR     0.000000        39.9480           0
    1365 ARGN 1365 ARG  ARG  AR     0.000000        39.9480           0
    1366 ARGN 1366 ARG  ARG  AR     0.000000        39.9480           0
    1367 ARGN 1367 ARG  ARG  AR     0.000000        39.9480           0
    1368 ARGN 1368 ARG  ARG  AR     0.000000        39.9480           0
    1369 ARGN 1369 ARG  ARG  AR     0.000000        39.9480           0
    1370 ARGN 1370 ARG  ARG  AR     0.000000        39.9480           0
    1371 ARGN 1371 ARG  ARG  AR     0.000000        39.9480           0
    1372 ARGN 1372 ARG  ARG  AR     0.000000        39.9480           0
    1373 ARGN 1373 ARG  ARG  AR     0.000000        39.9480           0
    1374 ARGN 1374 ARG  ARG  AR     0.000000        39.9480           0
    1375 ARGN 1375 ARG  ARG  AR     0.000000        39.9480           0
    1376 ARGN 1376 ARG  ARG  AR     0.000000        39.9480           0
    1377 ARGN 1377 ARG  ARG  AR     0.000000        39.9480           0
    1378 ARGN 1378 ARG  ARG  AR     0.000000        39.9480           0
    1379 ARGN 1379 ARG  ARG  AR     0.000000        39.9480           0
    1380 ARGN 1380 ARG  ARG  AR     0.000000        39.9480           0
    1381 ARGN 1381 ARG  ARG  AR     0.000000        39.9480           0
    1382 ARGN 1382 ARG  ARG  AR     0.000000        39.9480           0
    1383 ARGN 1383 ARG  ARG  AR     0.000000        39.9480           0
    1384 ARGN 1384 ARG  ARG  AR     0.000000        39.9480           0
    1385 ARGN 1385 ARG  ARG  AR     0.000000        39.9480           0
    1386 ARGN 1386 ARG  ARG  AR     0.000000        39.9480           0
    1387 ARGN 1387 ARG  ARG  AR     0.000000        39.9480           0
    1388 ARGN 1388 ARG  ARG  AR     0.000000        39.9480           0
    1389 ARGN 1389 ARG  ARG  AR     0.000000        39.9480           0
    1390 ARGN 1390 ARG  ARG  AR     0.000000        39.9480           0
    1391 ARGN 1391 ARG  ARG  AR     0.000000        39.9480           0
    1392 ARGN 1392 ARG  ARG  AR     0.000000        39.9480           0
    1393 ARGN 1393 ARG  ARG  AR     0.000000        39.9480           0
    1394 ARGN 1394 ARG  ARG  AR     0.000000        39.9480           0
    1395 ARGN 1395 ARG  ARG  AR     0.000000        39.9480           0
    1396 ARGN 1396 ARG  ARG  AR     0.000000        39.9480           0
    1397 ARGN 1397 ARG  ARG  AR     0.000000        39.9480           0
    1398 ARGN 1398 ARG  ARG  AR     0.000000        39.9480           0
    1399 ARGN 1399 ARG  ARG  AR     0.000000        39.9480           0
    1400 ARGN 1400 ARG  ARG  AR     0.000000        39.9480           0
    1401 ARGN 1401 ARG  ARG  AR     0.000000        39.9480           0
    1402 ARGN 1402 ARG  ARG  AR     0.000000        39.9480           0
    1403 ARGN 1403 ARG  ARG  AR     0.000000        39.9480           0
    1404 ARGN 1404 ARG  ARG  AR     0.000000        39.9480           0
    1405 ARGN 1405 ARG  ARG  AR     0.000000        39.9480           0
    1406 ARGN 1406 ARG  ARG  AR     0.000000        39.9480           0
    1407 ARGN 1407 ARG  ARG  AR     0.000000        39.9480           0
    1408 ARGN 1408 ARG  ARG  AR     0.000000        39.9480           0
    1409 ARGN 1409 ARG  ARG  AR     0.000000        39.9480           0
    1410 ARGN 1410 ARG  ARG  AR     0.000000        39.9480           0
    1411 ARGN 1411 ARG  ARG  AR     0.000000        39.9480           0
    1412 ARGN 1412 ARG  ARG  AR     0.000000        39.9480           0
    1413 ARGN 1413 ARG  ARG  AR     0.000000        39.9480           0
    1414 ARGN 1414 ARG  ARG  AR     0.000000        39.9480           0
    1415 ARGN 1415 ARG  ARG  AR     0.000000        39.9480           0
    1416 ARGN 1416 ARG  ARG  AR     0.000000        39.9480           0
    1417 ARGN 1417 ARG  ARG  AR     0.000000        39.9480           0
    1418 ARGN 1418 ARG  ARG  AR     0.000000        39.9480           0
    1419 ARGN 1419 ARG  ARG  AR     0.000000        39.9480           0
    1420 ARGN 1420 ARG  ARG  AR     0.000000        39.9480           0
    1421 ARGN 1421 ARG  ARG  AR     0.000000        39.9480           0
    1422 ARGN 1422 ARG  ARG  AR     0.000000        39.9480           0
    1423 ARGN 1423 ARG  ARG  AR     0.000000        39.9480           0
    1424 ARGN 1424 ARG  ARG  AR     0.000000        39.9480           0
    1425 ARGN 1425 ARG  ARG  AR     0.000000        39.9480           0
    1426 ARGN 1426 ARG  ARG  AR     0.000000        39.9480           0
    1427 ARGN 1427 ARG  ARG  AR     0.000000        39.9480           0
    1428 ARGN 1428 ARG  ARG  AR     0.000000        39.9480           0
    1429 ARGN 1429 ARG  ARG  AR     0.000000        39.9480           0
    1430 ARGN 1430 ARG  ARG  AR     0.000000        39.9480           0
    1431 ARGN 1431 ARG  ARG  AR     0.000000        39.9480           0
    1432 ARGN 1432 ARG  ARG  AR     0.000000        39.9480           0
    1433 ARGN 1433 ARG  ARG  AR     0.000000        39.9480           0
    1434 ARGN 1434 ARG  ARG  AR     0.000000        39.9480           0
    1435 ARGN 1435 ARG  ARG  AR     0.000000        39.9480           0
    1436 ARGN 1436 ARG  ARG  AR     0.000000        39.9480           0
    1437 ARGN 1437 ARG  ARG  AR     0.000000        39.9480           0
    1438 ARGN 1438 ARG  ARG  AR     0.000000        39.9480           0
    1439 ARGN 1439 ARG  ARG  AR     0.000000        39.9480           0
    1440 ARGN 1440 ARG  ARG  AR     0.000000        39.9480           0
    1441 ARGN 1441 ARG  ARG  AR     0.000000        39.9480           0
    1442 ARGN 1442 ARG  ARG  AR     0.000000        39.9480           0
    1443 ARGN 1443 ARG  ARG  AR     0.000000        39.9480           0
    1444 ARGN 1444 ARG  ARG  AR     0.000000        39.9480           0
    1445 ARGN 1445 ARG  ARG  AR     0.000000        39.9480           0
    1446 ARGN 1446 ARG  ARG  AR     0.000000        39.9480           0
    1447 ARGN 1447 ARG  ARG  AR     0.000000        39.9480           0
    1448 ARGN 1448 ARG  ARG  AR     0.000000        39.9480           0
    1449 ARGN 1449 ARG  ARG  AR     0.000000        39.9480           0
    1450 ARGN 1450 ARG  ARG  AR     0.000000        39.9480           0
    1451 ARGN 1451 ARG  ARG  AR     0.000000        39.9480           0
    1452 ARGN 1452 ARG  ARG  AR     0.000000        39.9480           0
    1453 ARGN 1453 ARG  ARG  AR     0.000000        39.9480           0
    1454 ARGN 1454 ARG  ARG  AR     0.000000        39.9480           0
    1455 ARGN 1455 ARG  ARG  AR     0.000000        39.9480           0
    1456 ARGN 1456 ARG  ARG  AR     0.000000        39.9480           0
    1457 ARGN 1457 ARG  ARG  AR     0.000000        39.9480           0
    1458 ARGN 1458 ARG  ARG  AR     0.000000        39.9480           0
    1459 ARGN 1459 ARG  ARG  AR     0.000000        39.9480           0
    1460 ARGN 1460 ARG  ARG  AR     0.000000        39.9480           0
    1461 ARGN 1461 ARG  ARG  AR     0.000000        39.9480           0
    1462 ARGN 1462 ARG  ARG  AR     0.000000        39.9480           0
    1463 ARGN 1463 ARG  ARG  AR     0.000000        39.9480           0
    1464 ARGN 1464 ARG  ARG  AR     0.000000        39.9480           0
    1465 ARGN 1465 ARG  ARG  AR     0.000000        39.9480           0
    1466 ARGN 1466 ARG  ARG  AR     0.000000        39.9480           0
    1467 ARGN 1467 ARG  ARG  AR     0.000000        39.9480           0
    1468 ARGN 1468 ARG  ARG  AR     0.000000        39.9480           0
    1469 ARGN 1469 ARG  ARG  AR     0.000000        39.9480           0
    1470 ARGN 1470 ARG  ARG  AR     0.000000        39.9480           0
    1471 ARGN 1471 ARG  ARG  AR     0.000000        39.9480           0
    1472 ARGN 1472 ARG  ARG  AR     0.000000        39.9480           0
    1473 ARGN 1473 ARG  ARG  AR     0.000000        39.9480           0
    1474 ARGN 1474 ARG  ARG  AR     0.000000        39.9480           0
    1475 ARGN 1475 ARG  ARG  AR     0.000000        39.9480           0
    1476 ARGN 1476 ARG  ARG  AR     0.000000        39.9480           0
    1477 ARGN 1477 ARG  ARG  AR     0.000000        39.9480           0
    1478 ARGN 1478 ARG  ARG  AR     0.000000        39.9480           0
    1479 ARGN 1479 ARG  ARG  AR     0.000000        39.9480           0
    1480 ARGN 1480 ARG  ARG  AR     0.000000        39.9480           0
    1481 ARGN 1481 ARG  ARG  AR     0.000000        39.9480           0
    1482 ARGN 1482 ARG  ARG  AR     0.000000        39.9480           0
    1483 ARGN 1483 ARG  ARG  AR     0.000000        39.9480           0
    1484 ARGN 1484 ARG  ARG  AR     0.000000        39.9480           0
    1485 ARGN 1485 ARG  ARG  AR     0.000000        39.9480           0
    1486 ARGN 1486 ARG  ARG  AR     0.000000        39.9480           0
    1487 ARGN 1487 ARG  ARG  AR     0.000000        39.9480           0
    1488 ARGN 1488 ARG  ARG  AR     0.000000        39.9480           0
    1489 ARGN 1489 ARG  ARG  AR     0.000000        39.9480           0
    1490 ARGN 1490 ARG  ARG  AR     0.000000        39.9480           0
    1491 ARGN 1491 ARG  ARG  AR     0.000000        39.9480           0
    1492 ARGN 1492 ARG  ARG  AR     0.000000        39.9480           0
    1493 ARGN 1493 ARG  ARG  AR     0.000000        39.9480           0
    1494 ARGN 1494 ARG  ARG  AR     0.000000        39.9480           0
    1495 ARGN 1495 ARG  ARG  AR     0.000000        39.9480           0
    1496 ARGN 1496 ARG  ARG  AR     0.000000        39.9480           0
    1497 ARGN 1497 ARG  ARG  AR     0.000000        39.9480           0
    1498 ARGN 1498 ARG  ARG  AR     0.000000        39.9480           0
    1499 ARGN 1499 ARG  ARG  AR     0.000000        39.9480           0
    1500 ARGN 1500 ARG  ARG  AR     0.000000        39.9480           0
    1501 ARGN 1501 ARG  ARG  AR     0.000000        39.9480           0
    1502 ARGN 1502 ARG  ARG  AR     0.000000        39.9480           0
    1503 ARGN 1503 ARG  ARG  AR     0.000000        39.9480           0
    1504 ARGN 1504 ARG  ARG  AR     0.000000        39.9480           0
    1505 ARGN 1505 ARG  ARG  AR     0.000000        39.9480           0
    1506 ARGN 1506 ARG  ARG  AR     0.000000        39.9480           0
    1507 ARGN 1507 ARG  ARG  AR     0.000000        39.9480           0
    1508 ARGN 1508 ARG  ARG  AR     0.000000        39.9480           0
    1509 ARGN 1509 ARG  ARG  AR     0.000000        39.9480           0
    1510 ARGN 1510 ARG  ARG  AR     0.000000        39.9480           0
    1511 ARGN 1511 ARG  ARG  AR     0.000000        39.9480           0
    1512 ARGN 1512 ARG  ARG  AR     0.000000        39.9480           0
    1513 ARGN 1513 ARG  ARG  AR     0.000000        39.9480           0
    1514 ARGN 1514 ARG  ARG  AR     0.000000        39.9480           0
    1515 ARGN 1515 ARG  ARG  AR     0.000000        39.9480           0
    1516 ARGN 1516 ARG  ARG  AR     0.000000        39.9480           0
    1517 ARGN 1517 ARG  ARG  AR     0.000000        39.9480           0
    1518 ARGN 1518 ARG  ARG  AR     0.000000        39.9480           0
    1519 ARGN 1519 ARG  ARG  AR     0.000000        39.9480           0
    1520 ARGN 1520 ARG  ARG  AR     0.000000        39.9480           0
    1521 ARGN 1521 ARG  ARG  AR     0.000000        39.9480           0
    1522 ARGN 1522 ARG  ARG  AR     0.000000        39.9480           0
    1523 ARGN 1523 ARG  ARG  AR     0.000000        39.9480           0
    1524 ARGN 1524 ARG  ARG  AR     0.000000        39.9480           0
    1525 ARGN 1525 ARG  ARG  AR     0.000000        39.9480           0
    1526 ARGN 1526 ARG  ARG  AR     0.000000        39.9480           0
    1527 ARGN 1527 ARG  ARG  AR     0.000000        39.9480           0
    1528 ARGN 1528 ARG  ARG  AR     0.000000        39.9480           0
    1529 ARGN 1529 ARG  ARG  AR     0.000000        39.9480           0
    1530 ARGN 1530 ARG  ARG  AR     0.000000        39.9480           0
    1531 ARGN 1531 ARG  ARG  AR     0.000000        39.9480           0
    1532 ARGN 1532 ARG  ARG  AR     0.000000        39.9480           0
    1533 ARGN 1533 ARG  ARG  AR     0.000000        39.9480           0
    1534 ARGN 1534 ARG  ARG  AR     0.000000        39.9480           0
    1535 ARGN 1535 ARG  ARG  AR     0.000000        39.9480           0
    1536 ARGN 1536 ARG  ARG  AR     0.000000        39.9480           0
    1537 ARGN 1537 ARG  ARG  AR     0.000000        39.9480           0
    1538 ARGN 1538 ARG  ARG  AR     0.000000        39.9480           0
    1539 ARGN 1539 ARG  ARG  AR     0.000000        39.9480           0
    1540 ARGN 1540 ARG  ARG  AR     0.000000        39.9480           0
    1541 ARGN 1541 ARG  ARG  AR     0.000000        39.9480           0
    1542 ARGN 1542 ARG  ARG  AR     0.000000        39.9480           0
    1543 ARGN 1543 ARG  ARG  AR     0.000000        39.9480           0
    1544 ARGN 1544 ARG  ARG  AR     0.000000        39.9480           0
    1545 ARGN 1545 ARG  ARG  AR     0.000000        39.9480           0
    1546 ARGN 1546 ARG  ARG  AR     0.000000        39.9480           0
    1547 ARGN 1547 ARG  ARG  AR     0.000000        39.9480           0
    1548 ARGN 1548 ARG  ARG  AR     0.000000        39.9480           0
    1549 ARGN 1549 ARG  ARG  AR     0.000000        39.9480           0
    1550 ARGN 1550 ARG  ARG  AR     0.000000        39.9480           0
    1551 ARGN 1551 ARG  ARG  AR     0.000000        39.9480           0
    1552 ARGN 1552 ARG  ARG  AR     0.000000        39.9480           0
    1553 ARGN 1553 ARG  ARG  AR     0.000000        39.9480           0
    1554 ARGN 1554 ARG  ARG  AR     0.000000        39.9480           0
    1555 ARGN 1555 ARG  ARG  AR     0.000000        39.9480           0
    1556 ARGN 1556 ARG  ARG  AR     0.000000        39.9480           0
    1557 ARGN 1557 ARG  ARG  AR     0.000000        39.9480           0
    1558 ARGN 1558 ARG  ARG  AR     0.000000        39.9480           0
    1559 ARGN 1559 ARG  ARG  AR     0.000000        39.9480           0
    1560 ARGN 1560 ARG  ARG  AR     0.000000        39.9480           0
    1561 ARGN 1561 ARG  ARG  AR     0.000000        39.9480           0
    1562 ARGN 1562 ARG  ARG  AR     0.000000        39.9480           0
    1563 ARGN 1563 ARG  ARG  AR     0.000000        39.9480           0
    1564 ARGN 1564 ARG  ARG  AR     0.000000        39.9480           0
    1565 ARGN 1565 ARG  ARG  AR     0.000000        39.9480           0
    1566 ARGN 1566 ARG  ARG  AR     0.000000        39.9480           0
    1567 ARGN 1567 ARG  ARG  AR     0.000000        39.9480           0
    1568 ARGN 1568 ARG  ARG  AR     0.000000        39.9480           0
    1569 ARGN 1569 ARG  ARG  AR     0.000000        39.9480           0
    1570 ARGN 1570 ARG  ARG  AR     0.000000        39.9480           0
    1571 ARGN 1571 ARG  ARG  AR     0.000000        39.9480           0
    1572 ARGN 1572 ARG  ARG  AR     0.000000        39.9480           0
    1573 ARGN 1573 ARG  ARG  AR     0.000000        39.9480           0
    1574 ARGN 1574 ARG  ARG  AR     0.000000        39.9480           0
    1575 ARGN 1575 ARG  ARG  AR     0.000000        39.9480           0
    1576 ARGN 1576 ARG  ARG  AR     0.000000        39.9480           0
    1577 ARGN 1577 ARG  ARG  AR     0.000000        39.9480           0
    1578 ARGN 1578 ARG  ARG  AR     0.000000        39.9480           0
    1579 ARGN 1579 ARG  ARG  AR     0.000000        39.9480           0
    1580 ARGN 1580 ARG  ARG  AR     0.000000        39.9480           0
    1581 ARGN 1581 ARG  ARG  AR     0.000000        39.9480           0
    1582 ARGN 1582 ARG  ARG  AR     0.000000        39.9480           0
    1583 ARGN 1583 ARG  ARG  AR     0.000000        39.9480           0
    1584 ARGN 1584 ARG  ARG  AR     0.000000        39.9480           0
    1585 ARGN 1585 ARG  ARG  AR     0.000000        39.9480           0
    1586 ARGN 1586 ARG  ARG  AR     0.000000        39.9480           0
    1587 ARGN 1587 ARG  ARG  AR     0.000000        39.9480           0
    1588 ARGN 1588 ARG  ARG  AR     0.000000        39.9480           0
    1589 ARGN 1589 ARG  ARG  AR     0.000000        39.9480           0
    1590 ARGN 1590 ARG  ARG  AR     0.000000        39.9480           0
    1591 ARGN 1591 ARG  ARG  AR     0.000000        39.9480           0
    1592 ARGN 1592 ARG  ARG  AR     0.000000        39.9480           0
    1593 ARGN 1593 ARG  ARG  AR     0.000000        39.9480           0
    1594 ARGN 1594 ARG  ARG  AR     0.000000        39.9480           0
    1595 ARGN 1595 ARG  ARG  AR     0.000000        39.9480           0
    1596 ARGN 1596 ARG  ARG  AR     0.000000        39.9480           0
    1597 ARGN 1597 ARG  ARG  AR     0.000000        39.9480           0
    1598 ARGN 1598 ARG  ARG  AR     0.000000        39.9480           0
    1599 ARGN 1599 ARG  ARG  AR     0.000000        39.9480           0
    1600 ARGN 1600 ARG  ARG  AR     0.000000        39.9480           0
    1601 ARGN 1601 ARG  ARG  AR     0.000000        39.9480           0
    1602 ARGN 1602 ARG  ARG  AR     0.000000        39.9480           0
    1603 ARGN 1603 ARG  ARG  AR     0.000000        39.9480           0
    1604 ARGN 1604 ARG  ARG  AR     0.000000        39.9480           0
    1605 ARGN 1605 ARG  ARG  AR     0.000000        39.9480           0
    1606 ARGN 1606 ARG  ARG  AR     0.000000        39.9480           0
    1607 ARGN 1607 ARG  ARG  AR     0.000000        39.9480           0
    1608 ARGN 1608 ARG  ARG  AR     0.000000        39.9480           0
    1609 ARGN 1609 ARG  ARG  AR     0.000000        39.9480           0
    1610 ARGN 1610 ARG  ARG  AR     0.000000        39.9480           0
    1611 ARGN 1611 ARG  ARG  AR     0.000000        39.9480           0
    1612 ARGN 1612 ARG  ARG  AR     0.000000        39.9480           0
    1613 ARGN 1613 ARG  ARG  AR     0.000000        39.9480           0
    1614 ARGN 1614 ARG  ARG  AR     0.000000        39.9480           0
    1615 ARGN 1615 ARG  ARG  AR     0.000000        39.9480           0
    1616 ARGN 1616 ARG  ARG  AR     0.000000        39.9480           0
    1617 ARGN 1617 ARG  ARG  AR     0.000000        39.9480           0
    1618 ARGN 1618 ARG  ARG  AR     0.000000        39.9480           0
    1619 ARGN 1619 ARG  ARG  AR     0.000000        39.9480           0
    1620 ARGN 1620 ARG  ARG  AR     0.000000        39.9480           0
    1621 ARGN 1621 ARG  ARG  AR     0.000000        39.9480           0
    1622 ARGN 1622 ARG  ARG  AR     0.000000        39.9480           0
    1623 ARGN 1623 ARG  ARG  AR     0.000000        39.9480           0
    1624 ARGN 1624 ARG  ARG  AR     0.000000        39.9480           0
    1625 ARGN 1625 ARG  ARG  AR     0.000000        39.9480           0
    1626 ARGN 1626 ARG  ARG  AR     0.000000        39.9480           0
    1627 ARGN 1627 ARG  ARG  AR     0.000000        39.9480           0
    1628 ARGN 1628 ARG  ARG  AR     0.000000        39.9480           0
    1629 ARGN 1629 ARG  ARG  AR     0.000000        39.9480           0
    1630 ARGN 1630 ARG  ARG  AR     0.000000        39.9480           0
    1631 ARGN 1631 ARG  ARG  AR     0.000000        39.9480           0
    1632 ARGN 1632 ARG  ARG  AR     0.000000        39.9480           0
    1633 ARGN 1633 ARG  ARG  AR     0.000000        39.9480           0
    1634 ARGN 1634 ARG  ARG  AR     0.000000        39.9480           0
    1635 ARGN 1635 ARG  ARG  AR     0.000000        39.9480           0
    1636 ARGN 1636 ARG  ARG  AR     0.000000        39.9480           0
    1637 ARGN 1637 ARG  ARG  AR     0.000000        39.9480           0
    1638 ARGN 1638 ARG  ARG  AR     0.000000        39.9480           0
    1639 ARGN 1639 ARG  ARG  AR     0.000000        39.9480           0
    1640 ARGN 1640 ARG  ARG  AR     0.000000        39.9480           0
    1641 ARGN 1641 ARG  ARG  AR     0.000000        39.9480           0
    1642 ARGN 1642 ARG  ARG  AR     0.000000        39.9480           0
    1643 ARGN 1643 ARG  ARG  AR     0.000000        39.9480           0
    1644 ARGN 1644 ARG  ARG  AR     0.000000        39.9480           0
    1645 ARGN 1645 ARG  ARG  AR     0.000000        39.9480           0
    1646 ARGN 1646 ARG  ARG  AR     0.000000        39.9480           0
    1647 ARGN 1647 ARG  ARG  AR     0.000000        39.9480           0
    1648 ARGN 1648 ARG  ARG  AR     0.000000        39.9480           0
    1649 ARGN 1649 ARG  ARG  AR     0.000000        39.9480           0
    1650 ARGN 1650 ARG  ARG  AR     0.000000        39.9480           0
    1651 ARGN 1651 ARG  ARG  AR     0.000000        39.9480           0
    1652 ARGN 1652 ARG  ARG  AR     0.000000        39.9480           0
    1653 ARGN 1653 ARG  ARG  AR     0.000000        39.9480           0
    1654 ARGN 1654 ARG  ARG  AR     0.000000        39.9480           0
    1655 ARGN 1655 ARG  ARG  AR     0.000000        39.9480           0
    1656 ARGN 1656 ARG  ARG  AR     0.000000        39.9480           0
    1657 ARGN 1657 ARG  ARG  AR     0.000000        39.9480           0
    1658 ARGN 1658 ARG  ARG  AR     0.000000        39.9480           0
    1659 ARGN 1659 ARG  ARG  AR     0.000000        39.9480           0
    1660 ARGN 1660 ARG  ARG  AR     0.000000        39.9480           0
    1661 ARGN 1661 ARG  ARG  AR     0.000000        39.9480           0
    1662 ARGN 1662 ARG  ARG  AR     0.000000        39.9480           0
    1663 ARGN 1663 ARG  ARG  AR     0.000000        39.9480           0
    1664 ARGN 1664 ARG  ARG  AR     0.000000        39.9480           0
    1665 ARGN 1665 ARG  ARG  AR     0.000000        39.9480           0
    1666 ARGN 1666 ARG  ARG  AR     0.000000        39.9480           0
    1667 ARGN 1667 ARG  ARG  AR     0.000000        39.9480           0
    1668 ARGN 1668 ARG  ARG  AR     0.000000        39.9480           0
    1669 ARGN 1669 ARG  ARG  AR     0.000000        39.9480           0
    1670 ARGN 1670 ARG  ARG  AR     0.000000        39.9480           0
    1671 ARGN 1671 ARG  ARG  AR     0.000000        39.9480           0
    1672 ARGN 1672 ARG  ARG  AR     0.000000        39.9480           0
    1673 ARGN 1673 ARG  ARG  AR     0.000000        39.9480           0
    1674 ARGN 1674 ARG  ARG  AR     0.000000        39.9480           0
    1675 ARGN 1675 ARG  ARG  AR     0.000000        39.9480           0
    1676 ARGN 1676 ARG  ARG  AR     0.000000        39.9480           0
    1677 ARGN 1677 ARG  ARG  AR     0.000000        39.9480           0
    1678 ARGN 1678 ARG  ARG  AR     0.000000        39.9480           0
    1679 ARGN 1679 ARG  ARG  AR     0.000000        39.9480           0
    1680 ARGN 1680 ARG  ARG  AR     0.000000        39.9480           0
    1681 ARGN 1681 ARG  ARG  AR     0.000000        39.9480           0
    1682 ARGN 1682 ARG  ARG  AR     0.000000        39.9480           0
    1683 ARGN 1683 ARG  ARG  AR     0.000000        39.9480           0
    1684 ARGN 1684 ARG  ARG  AR     0.000000        39.9480           0
    1685 ARGN 1685 ARG  ARG  AR     0.000000        39.9480           0
    1686 ARGN 1686 ARG  ARG  AR     0.000000        39.9480           0
    1687 ARGN 1687 ARG  ARG  AR     0.000000        39.9480           0
    1688 ARGN 1688 ARG  ARG  AR     0.000000        39.9480           0
    1689 ARGN 1689 ARG  ARG  AR     0.000000        39.9480           0
    1690 ARGN 1690 ARG  ARG  AR     0.000000        39.9480           0
    1691 ARGN 1691 ARG  ARG  AR     0.000000        39.9480           0
    1692 ARGN 1692 ARG  ARG  AR     0.000000        39.9480           0
    1693 ARGN 1693 ARG  ARG  AR     0.000000        39.9480           0
    1694 ARGN 1694 ARG  ARG  AR     0.000000        39.9480           0
    1695 ARGN 1695 ARG  ARG  AR     0.000000        39.9480           0
    1696 ARGN 1696 ARG  ARG  AR     0.000000        39.9480           0
    1697 ARGN 1697 ARG  ARG  AR     0.000000        39.9480           0
    1698 ARGN 1698 ARG  ARG  AR     0.000000        39.9480           0
    1699 ARGN 1699 ARG  ARG  AR     0.000000        39.9480           0
    1700 ARGN 1700 ARG  ARG  AR     0.000000        39.9480           0
    1701 ARGN 1701 ARG  ARG  AR     0.000000        39.9480           0
    1702 ARGN 1702 ARG  ARG  AR     0.000000        39.9480           0
    1703 ARGN 1703 ARG  ARG  AR     0.000000        39.9480           0
    1704 ARGN 1704 ARG  ARG  AR     0.000000        39.9480           0
    1705 ARGN 1705 ARG  ARG  AR     0.000000        39.9480           0
    1706 ARGN 1706 ARG  ARG  AR     0.000000        39.9480           0
    1707 ARGN 1707 ARG  ARG  AR     0.000000        39.9480           0
    1708 ARGN 1708 ARG  ARG  AR     0.000000        39.9480           0
    1709 ARGN 1709 ARG  ARG  AR     0.000000        39.9480           0
    1710 ARGN 1710 ARG  ARG  AR     0.000000        39.9480           0
    1711 ARGN 1711 ARG  ARG  AR     0.000000        39.9480           0
    1712 ARGN 1712 ARG  ARG  AR     0.000000        39.9480           0
    1713 ARGN 1713 ARG  ARG  AR     0.000000        39.9480           0
    1714 ARGN 1714 ARG  ARG  AR     0.000000        39.9480           0
    1715 ARGN 1715 ARG  ARG  AR     0.000000        39.9480           0
    1716 ARGN 1716 ARG  ARG  AR     0.000000        39.9480           0
    1717 ARGN 1717 ARG  ARG  AR     0.000000        39.9480           0
    1718 ARGN 1718 ARG  ARG  AR     0.000000        39.9480           0
    1719 ARGN 1719 ARG  ARG  AR     0.000000        39.9480           0
    1720 ARGN 1720 ARG  ARG  AR     0.000000        39.9480           0
    1721 ARGN 1721 ARG  ARG  AR     0.000000        39.9480           0
    1722 ARGN 1722 ARG  ARG  AR     0.000000        39.9480           0
    1723 ARGN 1723 ARG  ARG  AR     0.000000        39.9480           0
    1724 ARGN 1724 ARG  ARG  AR     0.000000        39.9480           0
    1725 ARGN 1725 ARG  ARG  AR     0.000000        39.9480           0
    1726 ARGN 1726 ARG  ARG  AR     0.000000        39.9480           0
    1727 ARGN 1727 ARG  ARG  AR     0.000000        39.9480           0
    1728 ARGN 1728 ARG  ARG  AR     0.000000        39.9480           0
    1729 ARGN 1729 ARG  ARG  AR     0.000000        39.9480           0
    1730 ARGN 1730 ARG  ARG  AR     0.000000        39.9480           0
    1731 ARGN 1731 ARG  ARG  AR     0.000000        39.9480           0
    1732 ARGN 1732 ARG  ARG  AR     0.000000        39.9480           0
    1733 ARGN 1733 ARG  ARG  AR     0.000000        39.9480           0
    1734 ARGN 1734 ARG  ARG  AR     0.000000        39.9480           0
    1735 ARGN 1735 ARG  ARG  AR     0.000000        39.9480           0
    1736 ARGN 1736 ARG  ARG  AR     0.000000        39.9480           0
    1737 ARGN 1737 ARG  ARG  AR     0.000000        39.9480           0
    1738 ARGN 1738 ARG  ARG  AR     0.000000        39.9480           0
    1739 ARGN 1739 ARG  ARG  AR     0.000000        39.9480           0
    1740 ARGN 1740 ARG  ARG  AR     0.000000        39.9480           0
    1741 ARGN 1741 ARG  ARG  AR     0.000000        39.9480           0
    1742 ARGN 1742 ARG  ARG  AR     0.000000        39.9480           0
    1743 ARGN 1743 ARG  ARG  AR     0.000000        39.9480           0
    1744 ARGN 1744 ARG  ARG  AR     0.000000        39.9480           0
    1745 ARGN 1745 ARG  ARG  AR     0.000000        39.9480           0
    1746 ARGN 1746 ARG  ARG  AR     0.000000        39.9480           0
    1747 ARGN 1747 ARG  ARG  AR     0.000000        39.9480           0
    1748 ARGN 1748 ARG  ARG  AR     0.000000        39.9480           0
    1749 ARGN 1749 ARG  ARG  AR     0.000000        39.9480           0
    1750 ARGN 1750 ARG  ARG  AR     0.000000        39.9480           0
    1751 ARGN 1751 ARG  ARG  AR     0.000000        39.9480           0
    1752 ARGN 1752 ARG  ARG  AR     0.000000        39.9480           0
    1753 ARGN 1753 ARG  ARG  AR     0.000000        39.9480           0
    1754 ARGN 1754 ARG  ARG  AR     0.000000        39.9480           0
    1755 ARGN 1755 ARG  ARG  AR     0.000000        39.9480           0
    1756 ARGN 1756 ARG  ARG  AR     0.000000        39.9480           0
    1757 ARGN 1757 ARG  ARG  AR     0.000000        39.9480           0
    1758 ARGN 1758 ARG  ARG  AR     0.000000        39.9480           0
    1759 ARGN 1759 ARG  ARG  AR     0.000000        39.9480           0
    1760 ARGN 1760 ARG  ARG  AR     0.000000        39.9480           0
    1761 ARGN 1761 ARG  ARG  AR     0.000000        39.9480           0
    1762 ARGN 1762 ARG  ARG  AR     0.000000        39.9480           0
    1763 ARGN 1763 ARG  ARG  AR     0.000000        39.9480           0
    1764 ARGN 1764 ARG  ARG  AR     0.000000        39.9480           0
    1765 ARGN 1765 ARG  ARG  AR     0.000000        39.9480           0
    1766 ARGN 1766 ARG  ARG  AR     0.000000        39.9480           0
    1767 ARGN 1767 ARG  ARG  AR     0.000000        39.9480           0
    1768 ARGN 1768 ARG  ARG  AR     0.000000        39.9480           0
    1769 ARGN 1769 ARG  ARG  AR     0.000000        39.9480           0
    1770 ARGN 1770 ARG  ARG  AR     0.000000        39.9480           0
    1771 ARGN 1771 ARG  ARG  AR     0.000000        39.9480           0
    1772 ARGN 1772 ARG  ARG  AR     0.000000        39.9480           0
    1773 ARGN 1773 ARG  ARG  AR     0.000000        39.9480           0
    1774 ARGN 1774 ARG  ARG  AR     0.000000        39.9480           0
    1775 ARGN 1775 ARG  ARG  AR     0.000000        39.9480           0
    1776 ARGN 1776 ARG  ARG  AR     0.000000        39.9480           0
    1777 ARGN 1777 ARG  ARG  AR     0.000000        39.9480           0
    1778 ARGN 1778 ARG  ARG  AR     0.000000        39.9480           0
    1779 ARGN 1779 ARG  ARG  AR     0.000000        39.9480           0
    1780 ARGN 1780 ARG  ARG  AR     0.000000        39.9480           0
    1781 ARGN 1781 ARG  ARG  AR     0.000000        39.9480           0
    1782 ARGN 1782 ARG  ARG  AR     0.000000        39.9480           0
    1783 ARGN 1783 ARG  ARG  AR     0.000000        39.9480           0
    1784 ARGN 1784 ARG  ARG  AR     0.000000        39.9480           0
    1785 ARGN 1785 ARG  ARG  AR     0.000000        39.9480           0
    1786 ARGN 1786 ARG  ARG  AR     0.000000        39.9480           0
    1787 ARGN 1787 ARG  ARG  AR     0.000000        39.9480           0
    1788 ARGN 1788 ARG  ARG  AR     0.000000        39.9480           0
    1789 ARGN 1789 ARG  ARG  AR     0.000000        39.9480           0
    1790 ARGN 1790 ARG  ARG  AR     0.000000        39.9480           0
    1791 ARGN 1791 ARG  ARG  AR     0.000000        39.9480           0
    1792 ARGN 1792 ARG  ARG  AR     0.000000        39.9480           0
    1793 ARGN 1793 ARG  ARG  AR     0.000000        39.9480           0
    1794 ARGN 1794 ARG  ARG  AR     0.000000        39.9480           0
    1795 ARGN 1795 ARG  ARG  AR     0.000000        39.9480           0
    1796 ARGN 1796 ARG  ARG  AR     0.000000        39.9480           0
    1797 ARGN 1797 ARG  ARG  AR     0.000000        39.9480           0
    1798 ARGN 1798 ARG  ARG  AR     0.000000        39.9480           0
    1799 ARGN 1799 ARG  ARG  AR     0.000000        39.9480           0
    1800 ARGN 1800 ARG  ARG  AR     0.000000        39.9480           0
    1801 ARGN 1801 ARG  ARG  AR     0.000000        39.9480           0
    1802 ARGN 1802 ARG  ARG  AR     0.000000        39.9480           0
    1803 ARGN 1803 ARG  ARG  AR     0.000000        39.9480           0
    1804 ARGN 1804 ARG  ARG  AR     0.000000        39.9480           0
    1805 ARGN 1805 ARG  ARG  AR     0.000000        39.9480           0
    1806 ARGN 1806 ARG  ARG  AR     0.000000        39.9480           0
    1807 ARGN 1807 ARG  ARG  AR     0.000000        39.9480           0
    1808 ARGN 1808 ARG  ARG  AR     0.000000        39.9480           0
    1809 ARGN 1809 ARG  ARG  AR     0.000000        39.9480           0
    1810 ARGN 1810 ARG  ARG  AR     0.000000        39.9480           0
    1811 ARGN 1811 ARG  ARG  AR     0.000000        39.9480           0
    1812 ARGN 1812 ARG  ARG  AR     0.000000        39.9480           0
    1813 ARGN 1813 ARG  ARG  AR     0.000000        39.9480           0
    1814 ARGN 1814 ARG  ARG  AR     0.000000        39.9480           0
    1815 ARGN 1815 ARG  ARG  AR     0.000000        39.9480           0
    1816 ARGN 1816 ARG  ARG  AR     0.000000        39.9480           0
    1817 ARGN 1817 ARG  ARG  AR     0.000000        39.9480           0
    1818 ARGN 1818 ARG  ARG  AR     0.000000        39.9480           0
    1819 ARGN 1819 ARG  ARG  AR     0.000000        39.9480           0
    1820 ARGN 1820 ARG  ARG  AR     0.000000        39.9480           0
    1821 ARGN 1821 ARG  ARG  AR     0.000000        39.9480           0
    1822 ARGN 1822 ARG  ARG  AR     0.000000        39.9480           0
    1823 ARGN 1823 ARG  ARG  AR     0.000000        39.9480           0
    1824 ARGN 1824 ARG  ARG  AR     0.000000        39.9480           0
    1825 ARGN 1825 ARG  ARG  AR     0.000000        39.9480           0
    1826 ARGN 1826 ARG  ARG  AR     0.000000        39.9480           0
    1827 ARGN 1827 ARG  ARG  AR     0.000000        39.9480           0
    1828 ARGN 1828 ARG  ARG  AR     0.000000        39.9480           0
    1829 ARGN 1829 ARG  ARG  AR     0.000000        39.9480           0
    1830 ARGN 1830 ARG  ARG  AR     0.000000        39.9480           0
    1831 ARGN 1831 ARG  ARG  AR     0.000000        39.9480           0
    1832 ARGN 1832 ARG  ARG  AR     0.000000        39.9480           0
    1833 ARGN 1833 ARG  ARG  AR     0.000000        39.9480           0
    1834 ARGN 1834 ARG  ARG  AR     0.000000        39.9480           0
    1835 ARGN 1835 ARG  ARG  AR     0.000000        39.9480           0
    1836 ARGN 1836 ARG  ARG  AR     0.000000        39.9480           0
    1837 ARGN 1837 ARG  ARG  AR     0.000000        39.9480           0
    1838 ARGN 1838 ARG  ARG  AR     0.000000        39.9480           0
    1839 ARGN 1839 ARG  ARG  AR     0.000000        39.9480           0
    1840 ARGN 1840 ARG  ARG  AR     0.000000        39.9480           0
    1841 ARGN 1841 ARG  ARG  AR     0.000000        39.9480           0
    1842 ARGN 1842 ARG  ARG  AR     0.000000        39.9480           0
    1843 ARGN 1843 ARG  ARG  AR     0.000000        39.9480           0
    1844 ARGN 1844 ARG  ARG  AR     0.000000        39.9480           0
    1845 ARGN 1845 ARG  ARG  AR     0.000000        39.9480           0
    1846 ARGN 1846 ARG  ARG  AR     0.000000        39.9480           0
    1847 ARGN 1847 ARG  ARG  AR     0.000000        39.9480           0
    1848 ARGN 1848 ARG  ARG  AR     0.000000        39.9480           0
    1849 ARGN 1849 ARG  ARG  AR     0.000000        39.9480           0
    1850 ARGN 1850 ARG  ARG  AR     0.000000        39.9480           0
    1851 ARGN 1851 ARG  ARG  AR     0.000000        39.9480           0
    1852 ARGN 1852 ARG  ARG  AR     0.000000        39.9480           0
    1853 ARGN 1853 ARG  ARG  AR     0.000000        39.9480           0
    1854 ARGN 1854 ARG  ARG  AR     0.000000        39.9480           0
    1855 ARGN 1855 ARG  ARG  AR     0.000000        39.9480           0
    1856 ARGN 1856 ARG  ARG  AR     0.000000        39.9480           0
    1857 ARGN 1857 ARG  ARG  AR     0.000000        39.9480           0
    1858 ARGN 1858 ARG  ARG  AR     0.000000        39.9480           0
    1859 ARGN 1859 ARG  ARG  AR     0.000000        39.9480           0
    1860 ARGN 1860 ARG  ARG  AR     0.000000        39.9480           0
    1861 ARGN 1861 ARG  ARG  AR     0.000000        39.9480           0
    1862 ARGN 1862 ARG  ARG  AR     0.000000        39.9480           0
    1863 ARGN 1863 ARG  ARG  AR     0.000000        39.9480           0
    1864 ARGN 1864 ARG  ARG  AR     0.000000        39.9480           0
    1865 ARGN 1865 ARG  ARG  AR     0.000000        39.9480           0
    1866 ARGN 1866 ARG  ARG  AR     0.000000        39.9480           0
    1867 ARGN 1867 ARG  ARG  AR     0.000000        39.9480           0
    1868 ARGN 1868 ARG  ARG  AR     0.000000        39.9480           0
    1869 ARGN 1869 ARG  ARG  AR     0.000000        39.9480           0
    1870 ARGN 1870 ARG  ARG  AR     0.000000        39.9480           0
    1871 ARGN 1871 ARG  ARG  AR     0.000000        39.9480           0
    1872 ARGN 1872 ARG  ARG  AR     0.000000        39.9480           0
    1873 ARGN 1873 ARG  ARG  AR     0.000000        39.9480           0
    1874 ARGN 1874 ARG  ARG  AR     0.000000        39.9480           0
    1875 ARGN 1875 ARG  ARG  AR     0.000000        39.9480           0
    1876 ARGN 1876 ARG  ARG  AR     0.000000        39.9480           0
    1877 ARGN 1877 ARG  ARG  AR     0.000000        39.9480           0
    1878 ARGN 1878 ARG  ARG  AR     0.000000        39.9480           0
    1879 ARGN 1879 ARG  ARG  AR     0.000000        39.9480           0
    1880 ARGN 1880 ARG  ARG  AR     0.000000        39.9480           0
    1881 ARGN 1881 ARG  ARG  AR     0.000000        39.9480           0
    1882 ARGN 1882 ARG  ARG  AR     0.000000        39.9480           0
    1883 ARGN 1883 ARG  ARG  AR     0.000000        39.9480           0
    1884 ARGN 1884 ARG  ARG  AR     0.000000        39.9480           0
    1885 ARGN 1885 ARG  ARG  AR     0.000000        39.9480           0
    1886 ARGN 1886 ARG  ARG  AR     0.000000        39.9480           0
    1887 ARGN 1887 ARG  ARG  AR     0.000000        39.9480           0
    1888 ARGN 1888 ARG  ARG  AR     0.000000        39.9480           0
    1889 ARGN 1889 ARG  ARG  AR     0.000000        39.9480           0
    1890 ARGN 1890 ARG  ARG  AR     0.000000        39.9480           0
    1891 ARGN 1891 ARG  ARG  AR     0.000000        39.9480           0
    1892 ARGN 1892 ARG  ARG  AR     0.000000        39.9480           0
    1893 ARGN 1893 ARG  ARG  AR     0.000000        39.9480           0
    1894 ARGN 1894 ARG  ARG  AR     0.000000        39.9480           0
    1895 ARGN 1895 ARG  ARG  AR     0.000000        39.9480           0
    1896 ARGN 1896 ARG  ARG  AR     0.000000        39.9480           0
    1897 ARGN 1897 ARG  ARG  AR     0.000000        39.9480           0
    1898 ARGN 1898 ARG  ARG  AR     0.000000        39.9480           0
    1899 ARGN 1899 ARG  ARG  AR     0.000000        39.9480           0
    1900 ARGN 1900 ARG  ARG  AR     0.000000        39.9480           0
    1901 ARGN 1901 ARG  ARG  AR     0.000000        39.9480           0
    1902 ARGN 1902 ARG  ARG  AR     0.000000        39.9480           0
    1903 ARGN 1903 ARG  ARG  AR     0.000000        39.9480           0
    1904 ARGN 1904 ARG  ARG  AR     0.000000        39.9480           0
    1905 ARGN 1905 ARG  ARG  AR     0.000000        39.9480           0
    1906 ARGN 1906 ARG  ARG  AR     0.000000        39.9480           0
    1907 ARGN 1907 ARG  ARG  AR     0.000000        39.9480           0
    1908 ARGN 1908 ARG  ARG  AR     0.000000        39.9480           0
    1909 ARGN 1909 ARG  ARG  AR     0.000000        39.9480           0
    1910 ARGN 1910 ARG  ARG  AR     0.000000        39.9480           0
    1911 ARGN 1911 ARG  ARG  AR     0.000000        39.9480           0
    1912 ARGN 1912 ARG  ARG  AR     0.000000        39.9480           0
    1913 ARGN 1913 ARG  ARG  AR     0.000000        39.9480           0
    1914 ARGN 1914 ARG  ARG  AR     0.000000        39.9480           0
    1915 ARGN 1915 ARG  ARG  AR     0.000000        39.9480           0
    1916 ARGN 1916 ARG  ARG  AR     0.000000        39.9480           0
    1917 ARGN 1917 ARG  ARG  AR     0.000000        39.9480           0
    1918 ARGN 1918 ARG  ARG  AR     0.000000        39.9480           0
    1919 ARGN 1919 ARG  ARG  AR     0.000000        39.9480           0
    1920 ARGN 1920 ARG  ARG  AR     0.000000        39.9480           0
    1921 ARGN 1921 ARG  ARG  AR     0.000000        39.9480           0
    1922 ARGN 1922 ARG  ARG  AR     0.000000        39.9480           0
    1923 ARGN 1923 ARG  ARG  AR     0.000000        39.9480           0
    1924 ARGN 1924 ARG  ARG  AR     0.000000        39.9480           0
    1925 ARGN 1925 ARG  ARG  AR     0.000000        39.9480           0
    1926 ARGN 1926 ARG  ARG  AR     0.000000        39.9480           0
    1927 ARGN 1927 ARG  ARG  AR     0.000000        39.9480           0
    1928 ARGN 1928 ARG  ARG  AR     0.000000        39.9480           0
    1929 ARGN 1929 ARG  ARG  AR     0.000000        39.9480           0
    1930 ARGN 1930 ARG  ARG  AR     0.000000        39.9480           0
    1931 ARGN 1931 ARG  ARG  AR     0.000000        39.9480           0
    1932 ARGN 1932 ARG  ARG  AR     0.000000        39.9480           0
    1933 ARGN 1933 ARG  ARG  AR     0.000000        39.9480           0
    1934 ARGN 1934 ARG  ARG  AR     0.000000        39.9480           0
    1935 ARGN 1935 ARG  ARG  AR     0.000000        39.9480           0
    1936 ARGN 1936 ARG  ARG  AR     0.000000        39.9480           0
    1937 ARGN 1937 ARG  ARG  AR     0.000000        39.9480           0
    1938 ARGN 1938 ARG  ARG  AR     0.000000        39.9480           0
    1939 ARGN 1939 ARG  ARG  AR     0.000000        39.9480           0
    1940 ARGN 1940 ARG  ARG  AR     0.000000        39.9480           0
    1941 ARGN 1941 ARG  ARG  AR     0.000000        39.9480           0
    1942 ARGN 1942 ARG  ARG  AR     0.000000        39.9480           0
    1943 ARGN 1943 ARG  ARG  AR     0.000000        39.9480           0
    1944 ARGN 1944 ARG  ARG  AR     0.000000        39.9480           0
    1945 ARGN 1945 ARG  ARG  AR     0.000000        39.9480           0
    1946 ARGN 1946 ARG  ARG  AR     0.000000        39.9480           0
    1947 ARGN 1947 ARG  ARG  AR     0.000000        39.9480           0
    1948 ARGN 1948 ARG  ARG  AR     0.000000        39.9480           0
    1949 ARGN 1949 ARG  ARG  AR     0.000000        39.9480           0
    1950 ARGN 1950 ARG  ARG  AR     0.000000        39.9480           0
    1951 ARGN 1951 ARG  ARG  AR     0.000000        39.9480           0
    1952 ARGN 1952 ARG  ARG  AR     0.000000        39.9480           0
    1953 ARGN 1953 ARG  ARG  AR     0.000000        39.9480           0
    1954 ARGN 1954 ARG  ARG  AR     0.000000        39.9480           0
    1955 ARGN 1955 ARG  ARG  AR     0.000000        39.9480           0
    1956 ARGN 1956 ARG  ARG  AR     0.000000        39.9480           0
    1957 ARGN 1957 ARG  ARG  AR     0.000000        39.9480           0
    1958 ARGN 1958 ARG  ARG  AR     0.000000        39.9480           0
    1959 ARGN 1959 ARG  ARG  AR     0.000000        39.9480           0
    1960 ARGN 1960 ARG  ARG  AR     0.000000        39.9480           0
    1961 ARGN 1961 ARG  ARG  AR     0.000000        39.9480           0
    1962 ARGN 1962 ARG  ARG  AR     0.000000        39.9480           0
    1963 ARGN 1963 ARG  ARG  AR     0.000000        39.9480           0
    1964 ARGN 1964 ARG  ARG  AR     0.000000        39.9480           0
    1965 ARGN 1965 ARG  ARG  AR     0.000000        39.9480           0
    1966 ARGN 1966 ARG  ARG  AR     0.000000        39.9480           0
    1967 ARGN 1967 ARG  ARG  AR     0.000000        39.9480           0
    1968 ARGN 1968 ARG  ARG  AR     0.000000        39.9480           0
    1969 ARGN 1969 ARG  ARG  AR     0.000000        39.9480           0
    1970 ARGN 1970 ARG  ARG  AR     0.000000        39.9480           0
    1971 ARGN 1971 ARG  ARG  AR     0.000000        39.9480           0
    1972 ARGN 1972 ARG  ARG  AR     0.000000        39.9480           0
    1973 ARGN 1973 ARG  ARG  AR     0.000000        39.9480           0
    1974 ARGN 1974 ARG  ARG  AR     0.000000        39.9480           0
    1975 ARGN 1975 ARG  ARG  AR     0.000000        39.9480           0
    1976 ARGN 1976 ARG  ARG  AR     0.000000        39.9480           0
    1977 ARGN 1977 ARG  ARG  AR     0.000000        39.9480           0
    1978 ARGN 1978 ARG  ARG  AR     0.000000        39.9480           0
    1979 ARGN 1979 ARG  ARG  AR     0.000000        39.9480           0
    1980 ARGN 1980 ARG  ARG  AR     0.000000        39.9480           0
    1981 ARGN 1981 ARG  ARG  AR     0.000000        39.9480           0
    1982 ARGN 1982 ARG  ARG  AR     0.000000        39.9480           0
    1983 ARGN 1983 ARG  ARG  AR     0.000000        39.9480           0
    1984 ARGN 1984 ARG  ARG  AR     0.000000        39.9480           0
    1985 ARGN 1985 ARG  ARG  AR     0.000000        39.9480           0
    1986 ARGN 1986 ARG  ARG  AR     0.000000        39.9480           0
    1987 ARGN 1987 ARG  ARG  AR     0.000000        39.9480           0
    1988 ARGN 1988 ARG  ARG  AR     0.000000        39.9480           0
    1989 ARGN 1989 ARG  ARG  AR     0.000000        39.9480           0
    1990 ARGN 1990 ARG  ARG  AR     0.000000        39.9480           0
    1991 ARGN 1991 ARG  ARG  AR     0.000000        39.9480           0
    1992 ARGN 1992 ARG  ARG  AR     0.000000        39.9480           0
    1993 ARGN 1993 ARG  ARG  AR     0.000000        39.9480           0
    1994 ARGN 1994 ARG  ARG  AR     0.000000        39.9480           0
    1995 ARGN 1995 ARG  ARG  AR     0.000000        39.9480           0
    1996 ARGN 1996 ARG  ARG  AR     0.000000        39.9480           0
    1997 ARGN 1997 ARG  ARG  AR     0.000000        39.9480           0
    1998 ARGN 1998 ARG  ARG  AR     0.000000        39.9480           0
    1999 ARGN 1999 ARG  ARG  AR     0.000000        39.9480           0
    2000 ARGN 2000 ARG  ARG  AR     0.000000        39.9480           0
    2001 ARGN 2001 ARG  ARG  AR     0.000000        39.9480           0
    2002 ARGN 2002 ARG  ARG  AR     0.000000        39.9480           0
    2003 ARGN 2003 ARG  ARG  AR     0.000000        39.9480           0
    2004 ARGN 2004 ARG  ARG  AR     0.000000        39.9480           0
    2005 ARGN 2005 ARG  ARG  AR     0.000000        39.9480           0
    2006 ARGN 2006 ARG  ARG  AR     0.000000        39.9480           0
    2007 ARGN 2007 ARG  ARG  AR     0.000000        39.9480           0
    2008 ARGN 2008 ARG  ARG  AR     0.000000        39.9480           0
    2009 ARGN 2009 ARG  ARG  AR     0.000000        39.9480           0
    2010 ARGN 2010 ARG  ARG  AR     0.000000        39.9480           0
    2011 ARGN 2011 ARG  ARG  AR     0.000000        39.9480           0
    2012 ARGN 2012 ARG  ARG  AR     0.000000        39.9480           0
    2013 ARGN 2013 ARG  ARG  AR     0.000000        39.9480           0
    2014 ARGN 2014 ARG  ARG  AR     0.000000        39.9480           0
    2015 ARGN 2015 ARG  ARG  AR     0.000000        39.9480           0
    2016 ARGN 2016 ARG  ARG  AR     0.000000        39.9480           0
    2017 ARGN 2017 ARG  ARG  AR     0.000000        39.9480           0
    2018 ARGN 2018 ARG  ARG  AR     0.000000        39.9480           0
    2019 ARGN 2019 ARG  ARG  AR     0.000000        39.9480           0
    2020 ARGN 2020 ARG  ARG  AR     0.000000        39.9480           0
    2021 ARGN 2021 ARG  ARG  AR     0.000000        39.9480           0
    2022 ARGN 2022 ARG  ARG  AR     0.000000        39.9480           0
    2023 ARGN 2023 ARG  ARG  AR     0.000000        39.9480           0
    2024 ARGN 2024 ARG  ARG  AR     0.000000        39.9480           0
    2025 ARGN 2025 ARG  ARG  AR     0.000000        39.9480           0
    2026 ARGN 2026 ARG  ARG  AR     0.000000        39.9480           0
    2027 ARGN 2027 ARG  ARG  AR     0.000000        39.9480           0
    2028 ARGN 2028 ARG  ARG  AR     0.000000        39.9480           0
    2029 ARGN 2029 ARG  ARG  AR     0.000000        39.9480           0
    2030 ARGN 2030 ARG  ARG  AR     0.000000        39.9480           0
    2031 ARGN 2031 ARG  ARG  AR     0.000000        39.9480           0
    2032 ARGN 2032 ARG  ARG  AR     0.000000        39.9480           0
    2033 ARGN 2033 ARG  ARG  AR     0.000000        39.9480           0
    2034 ARGN 2034 ARG  ARG  AR     0.000000        39.9480           0
    2035 ARGN 2035 ARG  ARG  AR     0.000000        39.9480           0
    2036 ARGN 2036 ARG  ARG  AR     0.000000        39.9480           0
    2037 ARGN 2037 ARG  ARG  AR     0.000000        39.9480           0
    2038 ARGN 2038 ARG  ARG  AR     0.000000        39.9480           0
    2039 ARGN 2039 ARG  ARG  AR     0.000000        39.9480           0
    2040 ARGN 2040 ARG  ARG  AR     0.000000        39.9480           0
    2041 ARGN 2041 ARG  ARG  AR     0.000000        39.9480           0
    2042 ARGN 2042 ARG  ARG  AR     0.000000        39.9480           0
    2043 ARGN 2043 ARG  ARG  AR     0.000000        39.9480           0
    2044 ARGN 2044 ARG  ARG  AR     0.000000        39.9480           0
    2045 ARGN 2045 ARG  ARG  AR     0.000000        39.9480           0
    2046 ARGN 2046 ARG  ARG  AR     0.000000        39.9480           0
    2047 ARGN 2047 ARG  ARG  AR     0.000000        39.9480           0
    2048 ARGN 2048 ARG  ARG  AR     0.000000        39.9480           0
    2049 ARGN 2049 ARG  ARG  AR     0.000000        39.9480           0
    2050 ARGN 2050 ARG  ARG  AR     0.000000        39.9480           0
    2051 ARGN 2051 ARG  ARG  AR     0.000000        39.9480           0
    2052 ARGN 2052 ARG  ARG  AR     0.000000        39.9480           0
    2053 ARGN 2053 ARG  ARG  AR     0.000000        39.9480           0
    2054 ARGN 2054 ARG  ARG  AR     0.000000        39.9480           0
    2055 ARGN 2055 ARG  ARG  AR     0.000000        39.9480           0
    2056 ARGN 2056 ARG  ARG  AR     0.000000        39.9480           0
    2057 ARGN 2057 ARG  ARG  AR     0.000000        39.9480           0
    2058 ARGN 2058 ARG  ARG  AR     0.000000        39.9480           0
    2059 ARGN 2059 ARG  ARG  AR     0.000000        39.9480           0
    2060 ARGN 2060 ARG  ARG  AR     0.000000        39.9480           0
    2061 ARGN 2061 ARG  ARG  AR     0.000000        39.9480           0
    2062 ARGN 2062 ARG  ARG  AR     0.000000        39.9480           0
    2063 ARGN 2063 ARG  ARG  AR     0.000000        39.9480           0
    2064 ARGN 2064 ARG  ARG  AR     0.000000        39.9480           0
    2065 ARGN 2065 ARG  ARG  AR     0.000000        39.9480           0
    2066 ARGN 2066 ARG  ARG  AR     0.000000        39.9480           0
    2067 ARGN 2067 ARG  ARG  AR     0.000000        39.9480           0
    2068 ARGN 2068 ARG  ARG  AR     0.000000        39.9480           0
    2069 ARGN 2069 ARG  ARG  AR     0.000000        39.9480           0
    2070 ARGN 2070 ARG  ARG  AR     0.000000        39.9480           0
    2071 ARGN 2071 ARG  ARG  AR     0.000000        39.9480           0
    2072 ARGN 2072 ARG  ARG  AR     0.000000        39.9480           0
    2073 ARGN 2073 ARG  ARG  AR     0.000000        39.9480           0
    2074 ARGN 2074 ARG  ARG  AR     0.000000        39.9480           0
    2075 ARGN 2075 ARG  ARG  AR     0.000000        39.9480           0
    2076 ARGN 2076 ARG  ARG  AR     0.000000        39.9480           0
    2077 ARGN 2077 ARG  ARG  AR     0.000000        39.9480           0
    2078 ARGN 2078 ARG  ARG  AR     0.000000        39.9480           0
    2079 ARGN 2079 ARG  ARG  AR     0.000000        39.9480           0
    2080 ARGN 2080 ARG  ARG  AR     0.000000        39.9480           0
    2081 ARGN 2081 ARG  ARG  AR     0.000000        39.9480           0
    2082 ARGN 2082 ARG  ARG  AR     0.000000        39.9480           0
    2083 ARGN 2083 ARG  ARG  AR     0.000000        39.9480           0
    2084 ARGN 2084 ARG  ARG  AR     0.000000        39.9480           0
    2085 ARGN 2085 ARG  ARG  AR     0.000000        39.9480           0
    2086 ARGN 2086 ARG  ARG  AR     0.000000        39.9480           0
    2087 ARGN 2087 ARG  ARG  AR     0.000000        39.9480           0
    2088 ARGN 2088 ARG  ARG  AR     0.000000        39.9480           0
    2089 ARGN 2089 ARG  ARG  AR     0.000000        39.9480           0
    2090 ARGN 2090 ARG  ARG  AR     0.000000        39.9480           0
    2091 ARGN 2091 ARG  ARG  AR     0.000000        39.9480           0
    2092 ARGN 2092 ARG  ARG  AR     0.000000        39.9480           0
    2093 ARGN 2093 ARG  ARG  AR     0.000000        39.9480           0
    2094 ARGN 2094 ARG  ARG  AR     0.000000        39.9480           0
    2095 ARGN 2095 ARG  ARG  AR     0.000000        39.9480           0
    2096 ARGN 2096 ARG  ARG  AR     0.000000        39.9480           0
    2097 ARGN 2097 ARG  ARG  AR     0.000000        39.9480           0
    2098 ARGN 2098 ARG  ARG  AR     0.000000        39.9480           0
    2099 ARGN 2099 ARG  ARG  AR     0.000000        39.9480           0
    2100 ARGN 2100 ARG  ARG  AR     0.000000        39.9480           0
    2101 ARGN 2101 ARG  ARG  AR     0.000000        39.9480           0
    2102 ARGN 2102 ARG  ARG  AR     0.000000        39.9480           0
    2103 ARGN 2103 ARG  ARG  AR     0.000000        39.9480           0
    2104 ARGN 2104 ARG  ARG  AR     0.000000        39.9480           0
    2105 ARGN 2105 ARG  ARG  AR     0.000000        39.9480           0
    2106 ARGN 2106 ARG  ARG  AR     0.000000        39.9480           0
    2107 ARGN 2107 ARG  ARG  AR     0.000000        39.9480           0
    2108 ARGN 2108 ARG  ARG  AR     0.000000        39.9480           0
    2109 ARGN 2109 ARG  ARG  AR     0.000000        39.9480           0
    2110 ARGN 2110 ARG  ARG  AR     0.000000        39.9480           0
    2111 ARGN 2111 ARG  ARG  AR     0.000000        39.9480           0
    2112 ARGN 2112 ARG  ARG  AR     0.000000        39.9480           0
    2113 ARGN 2113 ARG  ARG  AR     0.000000        39.9480           0
    2114 ARGN 2114 ARG  ARG  AR     0.000000        39.9480           0
    2115 ARGN 2115 ARG  ARG  AR     0.000000        39.9480           0
    2116 ARGN 2116 ARG  ARG  AR     0.000000        39.9480           0
    2117 ARGN 2117 ARG  ARG  AR     0.000000        39.9480           0
    2118 ARGN 2118 ARG  ARG  AR     0.000000        39.9480           0
    2119 ARGN 2119 ARG  ARG  AR     0.000000        39.9480           0
    2120 ARGN 2120 ARG  ARG  AR     0.000000        39.9480           0
    2121 ARGN 2121 ARG  ARG  AR     0.000000        39.9480           0
    2122 ARGN 2122 ARG  ARG  AR     0.000000        39.9480           0
    2123 ARGN 2123 ARG  ARG  AR     0.000000        39.9480           0
    2124 ARGN 2124 ARG  ARG  AR     0.000000        39.9480           0
    2125 ARGN 2125 ARG  ARG  AR     0.000000        39.9480           0
    2126 ARGN 2126 ARG  ARG  AR     0.000000        39.9480           0
    2127 ARGN 2127 ARG  ARG  AR     0.000000        39.9480           0
    2128 ARGN 2128 ARG  ARG  AR     0.000000        39.9480           0
    2129 ARGN 2129 ARG  ARG  AR     0.000000        39.9480           0
    2130 ARGN 2130 ARG  ARG  AR     0.000000        39.9480           0
    2131 ARGN 2131 ARG  ARG  AR     0.000000        39.9480           0
    2132 ARGN 2132 ARG  ARG  AR     0.000000        39.9480           0
    2133 ARGN 2133 ARG  ARG  AR     0.000000        39.9480           0
    2134 ARGN 2134 ARG  ARG  AR     0.000000        39.9480           0
    2135 ARGN 2135 ARG  ARG  AR     0.000000        39.9480           0
    2136 ARGN 2136 ARG  ARG  AR     0.000000        39.9480           0
    2137 ARGN 2137 ARG  ARG  AR     0.000000        39.9480           0
    2138 ARGN 2138 ARG  ARG  AR     0.000000        39.9480           0
    2139 ARGN 2139 ARG  ARG  AR     0.000000        39.9480           0
    2140 ARGN 2140 ARG  ARG  AR     0.000000        39.9480           0
    2141 ARGN 2141 ARG  ARG  AR     0.000000        39.9480           0
    2142 ARGN 2142 ARG  ARG  AR     0.000000        39.9480           0
    2143 ARGN 2143 ARG  ARG  AR     0.000000        39.9480           0
    2144 ARGN 2144 ARG  ARG  AR     0.000000        39.9480           0
    2145 ARGN 2145 ARG  ARG  AR     0.000000        39.9480           0
    2146 ARGN 2146 ARG  ARG  AR     0.000000        39.9480           0
    2147 ARGN 2147 ARG  ARG  AR     0.000000        39.9480           0
    2148 ARGN 2148 ARG  ARG  AR     0.000000        39.9480           0
    2149 ARGN 2149 ARG  ARG  AR     0.000000        39.9480           0
    2150 ARGN 2150 ARG  ARG  AR     0.000000        39.9480           0
    2151 ARGN 2151 ARG  ARG  AR     0.000000        39.9480           0
    2152 ARGN 2152 ARG  ARG  AR     0.000000        39.9480           0
    2153 ARGN 2153 ARG  ARG  AR     0.000000        39.9480           0
    2154 ARGN 2154 ARG  ARG  AR     0.000000        39.9480           0
    2155 ARGN 2155 ARG  ARG  AR     0.000000        39.9480           0
    2156 ARGN 2156 ARG  ARG  AR     0.000000        39.9480           0
    2157 ARGN 2157 ARG  ARG  AR     0.000000        39.9480           0
    2158 ARGN 2158 ARG  ARG  AR     0.000000        39.9480           0
    2159 ARGN 2159 ARG  ARG  AR     0.000000        39.9480           0
    2160 ARGN 2160 ARG  ARG  AR     0.000000        39.9480           0
    2161 ARGN 2161 ARG  ARG  AR     0.000000        39.9480           0
    2162 ARGN 2162 ARG  ARG  AR     0.000000        39.9480           0
    2163 ARGN 2163 ARG  ARG  AR     0.000000        39.9480           0
    2164 ARGN 2164 ARG  ARG  AR     0.000000        39.9480           0
    2165 ARGN 2165 ARG  ARG  AR     0.000000        39.9480           0
    2166 ARGN 2166 ARG  ARG  AR     0.000000        39.9480           0
    2167 ARGN 2167 ARG  ARG  AR     0.000000        39.9480           0
    2168 ARGN 2168 ARG  ARG  AR     0.000000        39.9480           0
    2169 ARGN 2169 ARG  ARG  AR     0.000000        39.9480           0
    2170 ARGN 2170 ARG  ARG  AR     0.000000        39.9480           0
    2171 ARGN 2171 ARG  ARG  AR     0.000000        39.9480           0
    2172 ARGN 2172 ARG  ARG  AR     0.000000        39.9480           0
    2173 ARGN 2173 ARG  ARG  AR     0.000000        39.9480           0
    2174 ARGN 2174 ARG  ARG  AR     0.000000        39.9480           0
    2175 ARGN 2175 ARG  ARG  AR     0.000000        39.9480           0
    2176 ARGN 2176 ARG  ARG  AR     0.000000        39.9480           0
    2177 ARGN 2177 ARG  ARG  AR     0.000000        39.9480           0
    2178 ARGN 2178 ARG  ARG  AR     0.000000        39.9480           0
    2179 ARGN 2179 ARG  ARG  AR     0.000000        39.9480           0
    2180 ARGN 2180 ARG  ARG  AR     0.000000        39.9480           0
    2181 ARGN 2181 ARG  ARG  AR     0.000000        39.9480           0
    2182 ARGN 2182 ARG  ARG  AR     0.000000        39.9480           0
    2183 ARGN 2183 ARG  ARG  AR     0.000000        39.9480           0
    2184 ARGN 2184 ARG  ARG  AR     0.000000        39.9480           0
    2185 ARGN 2185 ARG  ARG  AR     0.000000        39.9480           0
    2186 ARGN 2186 ARG  ARG  AR     0.000000        39.9480           0
    2187 ARGN 2187 ARG  ARG  AR     0.000000        39.9480           0
    2188 ARGN 2188 ARG  ARG  AR     0.000000        39.9480           0
    2189 ARGN 2189 ARG  ARG  AR     0.000000        39.9480           0
    2190 ARGN 2190 ARG  ARG  AR     0.000000        39.9480           0
    2191 ARGN 2191 ARG  ARG  AR     0.000000        39.9480           0
    2192 ARGN 2192 ARG  ARG  AR     0.000000        39.9480           0
    2193 ARGN 2193 ARG  ARG  AR     0.000000        39.9480           0
    2194 ARGN 2194 ARG  ARG  AR     0.000000        39.9480           0
    2195 ARGN 2195 ARG  ARG  AR     0.000000        39.9480           0
    2196 ARGN 2196 ARG  ARG  AR     0.000000        39.9480           0
    2197 ARGN 2197 ARG  ARG  AR     0.000000        39.9480           0
    2198 ARGN 2198 ARG  ARG  AR     0.000000        39.9480           0
    2199 ARGN 2199 ARG  ARG  AR     0.000000        39.9480           0
    2200 ARGN 2200 ARG  ARG  AR     0.000000        39.9480           0
    2201 ARGN 2201 ARG  ARG  AR     0.000000        39.9480           0
    2202 ARGN 2202 ARG  ARG  AR     0.000000        39.9480           0
    2203 ARGN 2203 ARG  ARG  AR     0.000000        39.9480           0
    2204 ARGN 2204 ARG  ARG  AR     0.000000        39.9480           0
    2205 ARGN 2205 ARG  ARG  AR     0.000000        39.9480           0
    2206 ARGN 2206 ARG  ARG  AR     0.000000        39.9480           0
    2207 ARGN 2207 ARG  ARG  AR     0.000000        39.9480           0
    2208 ARGN 2208 ARG  ARG  AR     0.000000        39.9480           0
    2209 ARGN 2209 ARG  ARG  AR     0.000000        39.9480           0
    2210 ARGN 2210 ARG  ARG  AR     0.000000        39.9480           0
    2211 ARGN 2211 ARG  ARG  AR     0.000000        39.9480           0
    2212 ARGN 2212 ARG  ARG  AR     0.000000        39.9480           0
    2213 ARGN 2213 ARG  ARG  AR     0.000000        39.9480           0
    2214 ARGN 2214 ARG  ARG  AR     0.000000        39.9480           0
    2215 ARGN 2215 ARG  ARG  AR     0.000000        39.9480           0
    2216 ARGN 2216 ARG  ARG  AR     0.000000        39.9480           0
    2217 ARGN 2217 ARG  ARG  AR     0.000000        39.9480           0
    2218 ARGN 2218 ARG  ARG  AR     0.000000        39.9480           0
    2219 ARGN 2219 ARG  ARG  AR     0.000000        39.9480           0
    2220 ARGN 2220 ARG  ARG  AR     0.000000        39.9480           0
    2221 ARGN 2221 ARG  ARG  AR     0.000000        39.9480           0
    2222 ARGN 2222 ARG  ARG  AR     0.000000        39.9480           0
    2223 ARGN 2223 ARG  ARG  AR     0.000000        39.9480           0
    2224 ARGN 2224 ARG  ARG  AR     0.000000        39.9480           0
    2225 ARGN 2225 ARG  ARG  AR     0.000000        39.9480           0
    2226 ARGN 2226 ARG  ARG  AR     0.000000        39.9480           0
    2227 ARGN 2227 ARG  ARG  AR     0.000000        39.9480           0
    2228 ARGN 2228 ARG  ARG  AR     0.000000        39.9480           0
    2229 ARGN 2229 ARG  ARG  AR     0.000000        39.9480           0
    2230 ARGN 2230 ARG  ARG  AR     0.000000        39.9480           0
    2231 ARGN 2231 ARG  ARG  AR     0.000000        39.9480           0
    2232 ARGN 2232 ARG  ARG  AR     0.000000        39.9480           0
    2233 ARGN 2233 ARG  ARG  AR     0.000000        39.9480           0
    2234 ARGN 2234 ARG  ARG  AR     0.000000        39.9480           0
    2235 ARGN 2235 ARG  ARG  AR     0.000000        39.9480           0
    2236 ARGN 2236 ARG  ARG  AR     0.000000        39.9480           0
    2237 ARGN 2237 ARG  ARG  AR     0.000000        39.9480           0
    2238 ARGN 2238 ARG  ARG  AR     0.000000        39.9480           0
    2239 ARGN 2239 ARG  ARG  AR     0.000000        39.9480           0
    2240 ARGN 2240 ARG  ARG  AR     0.000000        39.9480           0
    2241 ARGN 2241 ARG  ARG  AR     0.000000        39.9480           0
    2242 ARGN 2242 ARG  ARG  AR     0.000000        39.9480           0
    2243 ARGN 2243 ARG  ARG  AR     0.000000        39.9480           0
    2244 ARGN 2244 ARG  ARG  AR     0.000000        39.9480           0
    2245 ARGN 2245 ARG  ARG  AR     0.000000        39.9480           0
    2246 ARGN 2246 ARG  ARG  AR     0.000000        39.9480           0
    2247 ARGN 2247 ARG  ARG  AR     0.000000        39.9480           0
    2248 ARGN 2248 ARG  ARG  AR     0.000000        39.9480           0
    2249 ARGN 2249 ARG  ARG  AR     0.000000        39.9480           0
    2250 ARGN 2250 ARG  ARG  AR     0.000000        39.9480           0
    2251 ARGN 2251 ARG  ARG  AR     0.000000        39.9480           0
    2252 ARGN 2252 ARG  ARG  AR     0.000000        39.9480           0
    2253 ARGN 2253 ARG  ARG  AR     0.000000        39.9480           0
    2254 ARGN 2254 ARG  ARG  AR     0.000000        39.9480           0
    2255 ARGN 2255 ARG  ARG  AR     0.000000        39.9480           0
    2256 ARGN 2256 ARG  ARG  AR     0.000000        39.9480           0
    2257 ARGN 2257 ARG  ARG  AR     0.000000        39.9480           0
    2258 ARGN 2258 ARG  ARG  AR     0.000000        39.9480           0
    2259 ARGN 2259 ARG  ARG  AR     0.000000        39.9480           0
    2260 ARGN 2260 ARG  ARG  AR     0.000000        39.9480           0
    2261 ARGN 2261 ARG  ARG  AR     0.000000        39.9480           0
    2262 ARGN 2262 ARG  ARG  AR     0.000000        39.9480           0
    2263 ARGN 2263 ARG  ARG  AR     0.000000        39.9480           0
    2264 ARGN 2264 ARG  ARG  AR     0.000000        39.9480           0
    2265 ARGN 2265 ARG  ARG  AR     0.000000        39.9480           0
    2266 ARGN 2266 ARG  ARG  AR     0.000000        39.9480           0
    2267 ARGN 2267 ARG  ARG  AR     0.000000        39.9480           0
    2268 ARGN 2268 ARG  ARG  AR     0.000000        39.9480           0
    2269 ARGN 2269 ARG  ARG  AR     0.000000        39.9480           0
    2270 ARGN 2270 ARG  ARG  AR     0.000000        39.9480           0
    2271 ARGN 2271 ARG  ARG  AR     0.000000        39.9480           0
    2272 ARGN 2272 ARG  ARG  AR     0.000000        39.9480           0
    2273 ARGN 2273 ARG  ARG  AR     0.000000        39.9480           0
    2274 ARGN 2274 ARG  ARG  AR     0.000000        39.9480           0
    2275 ARGN 2275 ARG  ARG  AR     0.000000        39.9480           0
    2276 ARGN 2276 ARG  ARG  AR     0.000000        39.9480           0
    2277 ARGN 2277 ARG  ARG  AR     0.000000        39.9480           0
    2278 ARGN 2278 ARG  ARG  AR     0.000000        39.9480           0
    2279 ARGN 2279 ARG  ARG  AR     0.000000        39.9480           0
    2280 ARGN 2280 ARG  ARG  AR     0.000000        39.9480           0
    2281 ARGN 2281 ARG  ARG  AR     0.000000        39.9480           0
    2282 ARGN 2282 ARG  ARG  AR     0.000000        39.9480           0
    2283 ARGN 2283 ARG  ARG  AR     0.000000        39.9480           0
    2284 ARGN 2284 ARG  ARG  AR     0.000000        39.9480           0
    2285 ARGN 2285 ARG  ARG  AR     0.000000        39.9480           0
    2286 ARGN 2286 ARG  ARG  AR     0.000000        39.9480           0
    2287 ARGN 2287 ARG  ARG  AR     0.000000        39.9480           0
    2288 ARGN 2288 ARG  ARG  AR     0.000000        39.9480           0
    2289 ARGN 2289 ARG  ARG  AR     0.000000        39.9480           0
    2290 ARGN 2290 ARG  ARG  AR     0.000000        39.9480           0
    2291 ARGN 2291 ARG  ARG  AR     0.000000        39.9480           0
    2292 ARGN 2292 ARG  ARG  AR     0.000000        39.9480           0
    2293 ARGN 2293 ARG  ARG  AR     0.000000        39.9480           0
    2294 ARGN 2294 ARG  ARG  AR     0.000000        39.9480           0
    2295 ARGN 2295 ARG  ARG  AR     0.000000        39.9480           0
    2296 ARGN 2296 ARG  ARG  AR     0.000000        39.9480           0
    2297 ARGN 2297 ARG  ARG  AR     0.000000        39.9480           0
    2298 ARGN 2298 ARG  ARG  AR     0.000000        39.9480           0
    2299 ARGN 2299 ARG  ARG  AR     0.000000        39.9480           0
    2300 ARGN 2300 ARG  ARG  AR     0.000000        39.9480           0
    2301 ARGN 2301 ARG  ARG  AR     0.000000        39.9480           0
    2302 ARGN 2302 ARG  ARG  AR     0.000000        39.9480           0
    2303 ARGN 2303 ARG  ARG  AR     0.000000        39.9480           0
    2304 ARGN 2304 ARG  ARG  AR     0.000000        39.9480           0
    2305 ARGN 2305 ARG  ARG  AR     0.000000        39.9480           0
    2306 ARGN 2306 ARG  ARG  AR     0.000000        39.9480           0
    2307 ARGN 2307 ARG  ARG  AR     0.000000        39.9480           0
    2308 ARGN 2308 ARG  ARG  AR     0.000000        39.9480           0
    2309 ARGN 2309 ARG  ARG  AR     0.000000        39.9480           0
    2310 ARGN 2310 ARG  ARG  AR     0.000000        39.9480           0
    2311 ARGN 2311 ARG  ARG  AR     0.000000        39.9480           0
    2312 ARGN 2312 ARG  ARG  AR     0.000000        39.9480           0
    2313 ARGN 2313 ARG  ARG  AR     0.000000        39.9480           0
    2314 ARGN 2314 ARG  ARG  AR     0.000000        39.9480           0
    2315 ARGN 2315 ARG  ARG  AR     0.000000        39.9480           0
    2316 ARGN 2316 ARG  ARG  AR     0.000000        39.9480           0
    2317 ARGN 2317 ARG  ARG  AR     0.000000        39.9480           0
    2318 ARGN 2318 ARG  ARG  AR     0.000000        39.9480           0
    2319 ARGN 2319 ARG  ARG  AR     0.000000        39.9480           0
    2320 ARGN 2320 ARG  ARG  AR     0.000000        39.9480           0
    2321 ARGN 2321 ARG  ARG  AR     0.000000        39.9480           0
    2322 ARGN 2322 ARG  ARG  AR     0.000000        39.9480           0
    2323 ARGN 2323 ARG  ARG  AR     0.000000        39.9480           0
    2324 ARGN 2324 ARG  ARG  AR     0.000000        39.9480           0
    2325 ARGN 2325 ARG  ARG  AR     0.000000        39.9480           0
    2326 ARGN 2326 ARG  ARG  AR     0.000000        39.9480           0
    2327 ARGN 2327 ARG  ARG  AR     0.000000        39.9480           0
    2328 ARGN 2328 ARG  ARG  AR     0.000000        39.9480           0
    2329 ARGN 2329 ARG  ARG  AR     0.000000        39.9480           0
    2330 ARGN 2330 ARG  ARG  AR     0.000000        39.9480           0
    2331 ARGN 2331 ARG  ARG  AR     0.000000        39.9480           0
    2332 ARGN 2332 ARG  ARG  AR     0.000000        39.9480           0
    2333 ARGN 2333 ARG  ARG  AR     0.000000        39.9480           0
    2334 ARGN 2334 ARG  ARG  AR     0.000000        39.9480           0
    2335 ARGN 2335 ARG  ARG  AR     0.000000        39.9480           0
    2336 ARGN 2336 ARG  ARG  AR     0.000000        39.9480           0
    2337 ARGN 2337 ARG  ARG  AR     0.000000        39.9480           0
    2338 ARGN 2338 ARG  ARG  AR     0.000000        39.9480           0
    2339 ARGN 2339 ARG  ARG  AR     0.000000        39.9480           0
    2340 ARGN 2340 ARG  ARG  AR     0.000000        39.9480           0
    2341 ARGN 2341 ARG  ARG  AR     0.000000        39.9480           0
    2342 ARGN 2342 ARG  ARG  AR     0.000000        39.9480           0
    2343 ARGN 2343 ARG  ARG  AR     0.000000        39.9480           0
    2344 ARGN 2344 ARG  ARG  AR     0.000000        39.9480           0
    2345 ARGN 2345 ARG  ARG  AR     0.000000        39.9480           0
    2346 ARGN 2346 ARG  ARG  AR     0.000000        39.9480           0
    2347 ARGN 2347 ARG  ARG  AR     0.000000        39.9480           0
    2348 ARGN 2348 ARG  ARG  AR     0.000000        39.9480           0
    2349 ARGN 2349 ARG  ARG  AR     0.000000        39.9480           0
    2350 ARGN 2350 ARG  ARG  AR     0.000000        39.9480           0
    2351 ARGN 2351 ARG  ARG  AR     0.000000        39.9480           0
    2352 ARGN 2352 ARG  ARG  AR     0.000000        39.9480           0
    2353 ARGN 2353 ARG  ARG  AR     0.000000        39.9480           0
    2354 ARGN 2354 ARG  ARG  AR     0.000000        39.9480           0
    2355 ARGN 2355 ARG  ARG  AR     0.000000        39.9480           0
    2356 ARGN 2356 ARG  ARG  AR     0.000000        39.9480           0
    2357 ARGN 2357 ARG  ARG  AR     0.000000        39.9480           0
    2358 ARGN 2358 ARG  ARG  AR     0.000000        39.9480           0
    2359 ARGN 2359 ARG  ARG  AR     0.000000        39.9480           0
    2360 ARGN 2360 ARG  ARG  AR     0.000000        39.9480           0
    2361 ARGN 2361 ARG  ARG  AR     0.000000        39.9480           0
    2362 ARGN 2362 ARG  ARG  AR     0.000000        39.9480           0
    2363 ARGN 2363 ARG  ARG  AR     0.000000        39.9480           0
    2364 ARGN 2364 ARG  ARG  AR     0.000000        39.9480           0
    2365 ARGN 2365 ARG  ARG  AR     0.000000        39.9480           0
    2366 ARGN 2366 ARG  ARG  AR     0.000000        39.9480           0
    2367 ARGN 2367 ARG  ARG  AR     0.000000        39.9480           0
    2368 ARGN 2368 ARG  ARG  AR     0.000000        39.9480           0
    2369 ARGN 2369 ARG  ARG  AR     0.000000        39.9480           0
    2370 ARGN 2370 ARG  ARG  AR     0.000000        39.9480           0
    2371 ARGN 2371 ARG  ARG  AR     0.000000        39.9480           0
    2372 ARGN 2372 ARG  ARG  AR     0.000000        39.9480           0
    2373 ARGN 2373 ARG  ARG  AR     0.000000        39.9480           0
    2374 ARGN 2374 ARG  ARG  AR     0.000000        39.9480           0
    2375 ARGN 2375 ARG  ARG  AR     0.000000        39.9480           0
    2376 ARGN 2376 ARG  ARG  AR     0.000000        39.9480           0
    2377 ARGN 2377 ARG  ARG  AR     0.000000        39.9480           0
    2378 ARGN 2378 ARG  ARG  AR     0.000000        39.9480           0
    2379 ARGN 2379 ARG  ARG  AR     0.000000        39.9480           0
    2380 ARGN 2380 ARG  ARG  AR     0.000000        39.9480           0
    2381 ARGN 2381 ARG  ARG  AR     0.000000        39.9480           0
    2382 ARGN 2382 ARG  ARG  AR     0.000000        39.9480           0
    2383 ARGN 2383 ARG  ARG  AR     0.000000        39.9480           0
    2384 ARGN 2384 ARG  ARG  AR     0.000000        39.9480           0
    2385 ARGN 2385 ARG  ARG  AR     0.000000        39.9480           0
    2386 ARGN 2386 ARG  ARG  AR     0.000000        39.9480           0
    2387 ARGN 2387 ARG  ARG  AR     0.000000        39.9480           0
    2388 ARGN 2388 ARG  ARG  AR     0.000000        39.9480           0
    2389 ARGN 2389 ARG  ARG  AR     0.000000        39.9480           0
    2390 ARGN 2390 ARG  ARG  AR     0.000000        39.9480           0
    2391 ARGN 2391 ARG  ARG  AR     0.000000        39.9480           0
    2392 ARGN 2392 ARG  ARG  AR     0.000000        39.9480           0
    2393 ARGN 2393 ARG  ARG  AR     0.000000        39.9480           0
    2394 ARGN 2394 ARG  ARG  AR     0.000000        39.9480           0
    2395 ARGN 2395 ARG  ARG  AR     0.000000        39.9480           0
    2396 ARGN 2396 ARG  ARG  AR     0.000000        39.9480           0
    2397 ARGN 2397 ARG  ARG  AR     0.000000        39.9480           0
    2398 ARGN 2398 ARG  ARG  AR     0.000000        39.9480           0
    2399 ARGN 2399 ARG  ARG  AR     0.000000        39.9480           0
    2400 ARGN 2400 ARG  ARG  AR     0.000000        39.9480           0
    2401 ARGN 2401 ARG  ARG  AR     0.000000        39.9480           0
    2402 ARGN 2402 ARG  ARG  AR     0.000000        39.9480           0
    2403 ARGN 2403 ARG  ARG  AR     0.000000        39.9480           0
    2404 ARGN 2404 ARG  ARG  AR     0.000000        39.9480           0
    2405 ARGN 2405 ARG  ARG  AR     0.000000        39.9480           0
    2406 ARGN 2406 ARG  ARG  AR     0.000000        39.9480           0
    2407 ARGN 2407 ARG  ARG  AR     0.000000        39.9480           0
    2408 ARGN 2408 ARG  ARG  AR     0.000000        39.9480           0
    2409 ARGN 2409 ARG  ARG  AR     0.000000        39.9480           0
    2410 ARGN 2410 ARG  ARG  AR     0.000000        39.9480           0
    2411 ARGN 2411 ARG  ARG  AR     0.000000        39.9480           0
    2412 ARGN 2412 ARG  ARG  AR     0.000000        39.9480           0
    2413 ARGN 2413 ARG  ARG  AR     0.000000        39.9480           0
    2414 ARGN 2414 ARG  ARG  AR     0.000000        39.9480           0
    2415 ARGN 2415 ARG  ARG  AR     0.000000        39.9480           0
    2416 ARGN 2416 ARG  ARG  AR     0.000000        39.9480           0
    2417 ARGN 2417 ARG  ARG  AR     0.000000        39.9480           0
    2418 ARGN 2418 ARG  ARG  AR     0.000000        39.9480           0
    2419 ARGN 2419 ARG  ARG  AR     0.000000        39.9480           0
    2420 ARGN 2420 ARG  ARG  AR     0.000000        39.9480           0
    2421 ARGN 2421 ARG  ARG  AR     0.000000        39.9480           0
    2422 ARGN 2422 ARG  ARG  AR     0.000000        39.9480           0
    2423 ARGN 2423 ARG  ARG  AR     0.000000        39.9480           0
    2424 ARGN 2424 ARG  ARG  AR     0.000000        39.9480           0
    2425 ARGN 2425 ARG  ARG  AR     0.000000        39.9480           0
    2426 ARGN 2426 ARG  ARG  AR     0.000000        39.9480           0
    2427 ARGN 2427 ARG  ARG  AR     0.000000        39.9480           0
    2428 ARGN 2428 ARG  ARG  AR     0.000000        39.9480           0
    2429 ARGN 2429 ARG  ARG  AR     0.000000        39.9480           0
    2430 ARGN 2430 ARG  ARG  AR     0.000000        39.9480           0
    2431 ARGN 2431 ARG  ARG  AR     0.000000        39.9480           0
    2432 ARGN 2432 ARG  ARG  AR     0.000000        39.9480           0
    2433 ARGN 2433 ARG  ARG  AR     0.000000        39.9480           0
    2434 ARGN 2434 ARG  ARG  AR     0.000000        39.9480           0
    2435 ARGN 2435 ARG  ARG  AR     0.000000        39.9480           0
    2436 ARGN 2436 ARG  ARG  AR     0.000000        39.9480           0
    2437 ARGN 2437 ARG  ARG  AR     0.000000        39.9480           0
    2438 ARGN 2438 ARG  ARG  AR     0.000000        39.9480           0
    2439 ARGN 2439 ARG  ARG  AR     0.000000        39.9480           0
    2440 ARGN 2440 ARG  ARG  AR     0.000000        39.9480           0
    2441 ARGN 2441 ARG  ARG  AR     0.000000        39.9480           0
    2442 ARGN 2442 ARG  ARG  AR     0.000000        39.9480           0
    2443 ARGN 2443 ARG  ARG  AR     0.000000        39.9480           0
    2444 ARGN 2444 ARG  ARG  AR     0.000000        39.9480           0
    2445 ARGN 2445 ARG  ARG  AR     0.000000        39.9480           0
    2446 ARGN 2446 ARG  ARG  AR     0.000000        39.9480           0
    2447 ARGN 2447 ARG  ARG  AR     0.000000        39.9480           0
    2448 ARGN 2448 ARG  ARG  AR     0.000000        39.9480           0
    2449 ARGN 2449 ARG  ARG  AR     0.000000        39.9480           0
    2450 ARGN 2450 ARG  ARG  AR     0.000000        39.9480           0
    2451 ARGN 2451 ARG  ARG  AR     0.000000        39.9480           0
    2452 ARGN 2452 ARG  ARG  AR     0.000000        39.9480           0
    2453 ARGN 2453 ARG  ARG  AR     0.000000        39.9480           0
    2454 ARGN 2454 ARG  ARG  AR     0.000000        39.9480           0
    2455 ARGN 2455 ARG  ARG  AR     0.000000        39.9480           0
    2456 ARGN 2456 ARG  ARG  AR     0.000000        39.9480           0
    2457 ARGN 2457 ARG  ARG  AR     0.000000        39.9480           0
    2458 ARGN 2458 ARG  ARG  AR     0.000000        39.9480           0
    2459 ARGN 2459 ARG  ARG  AR     0.000000        39.9480           0
    2460 ARGN 2460 ARG  ARG  AR     0.000000        39.9480           0
    2461 ARGN 2461 ARG  ARG  AR     0.000000        39.9480           0
    2462 ARGN 2462 ARG  ARG  AR     0.000000        39.9480           0
    2463 ARGN 2463 ARG  ARG  AR     0.000000        39.9480           0
    2464 ARGN 2464 ARG  ARG  AR     0.000000        39.9480           0
    2465 ARGN 2465 ARG  ARG  AR     0.000000        39.9480           0
    2466 ARGN 2466 ARG  ARG  AR     0.000000        39.9480           0
    2467 ARGN 2467 ARG  ARG  AR     0.000000        39.9480           0
    2468 ARGN 2468 ARG  ARG  AR     0.000000        39.9480           0
    2469 ARGN 2469 ARG  ARG  AR     0.000000        39.9480           0
    2470 ARGN 2470 ARG  ARG  AR     0.000000        39.9480           0
    2471 ARGN 2471 ARG  ARG  AR     0.000000        39.9480           0
    2472 ARGN 2472 ARG  ARG  AR     0.000000        39.9480           0
    2473 ARGN 2473 ARG  ARG  AR     0.000000        39.9480           0
    2474 ARGN 2474 ARG  ARG  AR     0.000000        39.9480           0
    2475 ARGN 2475 ARG  ARG  AR     0.000000        39.9480           0
    2476 ARGN 2476 ARG  ARG  AR     0.000000        39.9480           0
    2477 ARGN 2477 ARG  ARG  AR     0.000000        39.9480           0
    2478 ARGN 2478 ARG  ARG  AR     0.000000        39.9480           0
    2479 ARGN 2479 ARG  ARG  AR     0.000000        39.9480           0
    2480 ARGN 2480 ARG  ARG  AR     0.000000        39.9480           0
    2481 ARGN 2481 ARG  ARG  AR     0.000000        39.9480           0
    2482 ARGN 2482 ARG  ARG  AR     0.000000        39.9480           0
    2483 ARGN 2483 ARG  ARG  AR     0.000000        39.9480           0
    2484 ARGN 2484 ARG  ARG  AR     0.000000        39.9480           0
    2485 ARGN 2485 ARG  ARG  AR     0.000000        39.9480           0
    2486 ARGN 2486 ARG  ARG  AR     0.000000        39.9480           0
    2487 ARGN 2487 ARG  ARG  AR     0.000000        39.9480           0
    2488 ARGN 2488 ARG  ARG  AR     0.000000        39.9480           0
    2489 ARGN 2489 ARG  ARG  AR     0.000000        39.9480           0
    2490 ARGN 2490 ARG  ARG  AR     0.000000        39.9480           0
    2491 ARGN 2491 ARG  ARG  AR     0.000000        39.9480           0
    2492 ARGN 2492 ARG  ARG  AR     0.000000        39.9480           0
    2493 ARGN 2493 ARG  ARG  AR     0.000000        39.9480           0
    2494 ARGN 2494 ARG  ARG  AR     0.000000        39.9480           0
    2495 ARGN 2495 ARG  ARG  AR     0.000000        39.9480           0
    2496 ARGN 2496 ARG  ARG  AR     0.000000        39.9480           0
    2497 ARGN 2497 ARG  ARG  AR     0.000000        39.9480           0
    2498 ARGN 2498 ARG  ARG  AR     0.000000        39.9480           0
    2499 ARGN 2499 ARG  ARG  AR     0.000000        39.9480           0
    2500 ARGN 2500 ARG  ARG  AR     0.000000        39.9480           0
    2501 ARGN 2501 ARG  ARG  AR     0.000000        39.9480           0
    2502 ARGN 2502 ARG  ARG  AR     0.000000        39.9480           0
    2503 ARGN 2503 ARG  ARG  AR     0.000000        39.9480           0
    2504 ARGN 2504 ARG  ARG  AR     0.000000        39.9480           0
    2505 ARGN 2505 ARG  ARG  AR     0.000000        39.9480           0
    2506 ARGN 2506 ARG  ARG  AR     0.000000        39.9480           0
    2507 ARGN 2507 ARG  ARG  AR     0.000000        39.9480           0
    2508 ARGN 2508 ARG  ARG  AR     0.000000        39.9480           0
    2509 ARGN 2509 ARG  ARG  AR     0.000000        39.9480           0
    2510 ARGN 2510 ARG  ARG  AR     0.000000        39.9480           0
    2511 ARGN 2511 ARG  ARG  AR     0.000000        39.9480           0
    2512 ARGN 2512 ARG  ARG  AR     0.000000        39.9480           0
    2513 ARGN 2513 ARG  ARG  AR     0.000000        39.9480           0
    2514 ARGN 2514 ARG  ARG  AR     0.000000        39.9480           0
    2515 ARGN 2515 ARG  ARG  AR     0.000000        39.9480           0
    2516 ARGN 2516 ARG  ARG  AR     0.000000        39.9480           0
    2517 ARGN 2517 ARG  ARG  AR     0.000000        39.9480           0
    2518 ARGN 2518 ARG  ARG  AR     0.000000        39.9480           0
    2519 ARGN 2519 ARG  ARG  AR     0.000000        39.9480           0
    2520 ARGN 2520 ARG  ARG  AR     0.000000        39.9480           0
    2521 ARGN 2521 ARG  ARG  AR     0.000000        39.9480           0
    2522 ARGN 2522 ARG  ARG  AR     0.000000        39.9480           0
    2523 ARGN 2523 ARG  ARG  AR     0.000000        39.9480           0
    2524 ARGN 2524 ARG  ARG  AR     0.000000        39.9480           0
    2525 ARGN 2525 ARG  ARG  AR     0.000000        39.9480           0
    2526 ARGN 2526 ARG  ARG  AR     0.000000        39.9480           0
    2527 ARGN 2527 ARG  ARG  AR     0.000000        39.9480           0
    2528 ARGN 2528 ARG  ARG  AR     0.000000        39.9480           0
    2529 ARGN 2529 ARG  ARG  AR     0.000000        39.9480           0
    2530 ARGN 2530 ARG  ARG  AR     0.000000        39.9480           0
    2531 ARGN 2531 ARG  ARG  AR     0.000000        39.9480           0
    2532 ARGN 2532 ARG  ARG  AR     0.000000        39.9480           0
    2533 ARGN 2533 ARG  ARG  AR     0.000000        39.9480           0
    2534 ARGN 2534 ARG  ARG  AR     0.000000        39.9480           0
    2535 ARGN 2535 ARG  ARG  AR     0.000000        39.9480           0
    2536 ARGN 2536 ARG  ARG  AR     0.000000        39.9480           0
    2537 ARGN 2537 ARG  ARG  AR     0.000000        39.9480           0
    2538 ARGN 2538 ARG  ARG  AR     0.000000        39.9480           0
    2539 ARGN 2539 ARG  ARG  AR     0.000000        39.9480           0
    2540 ARGN 2540 ARG  ARG  AR     0.000000        39.9480           0
    2541 ARGN 2541 ARG  ARG  AR     0.000000        39.9480           0
    2542 ARGN 2542 ARG  ARG  AR     0.000000        39.9480           0
    2543 ARGN 2543 ARG  ARG  AR     0.000000        39.9480           0
    2544 ARGN 2544 ARG  ARG  AR     0.000000        39.9480           0
    2545 ARGN 2545 ARG  ARG  AR     0.000000        39.9480           0
    2546 ARGN 2546 ARG  ARG  AR     0.000000        39.9480           0
    2547 ARGN 2547 ARG  ARG  AR     0.000000        39.9480           0
    2548 ARGN 2548 ARG  ARG  AR     0.000000        39.9480           0
    2549 ARGN 2549 ARG  ARG  AR     0.000000        39.9480           0
    2550 ARGN 2550 ARG  ARG  AR     0.000000        39.9480           0
    2551 ARGN 2551 ARG  ARG  AR     0.000000        39.9480           0
    2552 ARGN 2552 ARG  ARG  AR     0.000000        39.9480           0
    2553 ARGN 2553 ARG  ARG  AR     0.000000        39.9480           0
    2554 ARGN 2554 ARG  ARG  AR     0.000000        39.9480           0
    2555 ARGN 2555 ARG  ARG  AR     0.000000        39.9480           0
    2556 ARGN 2556 ARG  ARG  AR     0.000000        39.9480           0
    2557 ARGN 2557 ARG  ARG  AR     0.000000        39.9480           0
    2558 ARGN 2558 ARG  ARG  AR     0.000000        39.9480           0
    2559 ARGN 2559 ARG  ARG  AR     0.000000        39.9480           0
    2560 ARGN 2560 ARG  ARG  AR     0.000000        39.9480           0
    2561 ARGN 2561 ARG  ARG  AR     0.000000        39.9480           0
    2562 ARGN 2562 ARG  ARG  AR     0.000000        39.9480           0
    2563 ARGN 2563 ARG  ARG  AR     0.000000        39.9480           0
    2564 ARGN 2564 ARG  ARG  AR     0.000000        39.9480           0
    2565 ARGN 2565 ARG  ARG  AR     0.000000        39.9480           0
    2566 ARGN 2566 ARG  ARG  AR     0.000000        39.9480           0
    2567 ARGN 2567 ARG  ARG  AR     0.000000        39.9480           0
    2568 ARGN 2568 ARG  ARG  AR     0.000000        39.9480           0
    2569 ARGN 2569 ARG  ARG  AR     0.000000        39.9480           0
    2570 ARGN 2570 ARG  ARG  AR     0.000000        39.9480           0
    2571 ARGN 2571 ARG  ARG  AR     0.000000        39.9480           0
    2572 ARGN 2572 ARG  ARG  AR     0.000000        39.9480           0
    2573 ARGN 2573 ARG  ARG  AR     0.000000        39.9480           0
    2574 ARGN 2574 ARG  ARG  AR     0.000000        39.9480           0
    2575 ARGN 2575 ARG  ARG  AR     0.000000        39.9480           0
    2576 ARGN 2576 ARG  ARG  AR     0.000000        39.9480           0
    2577 ARGN 2577 ARG  ARG  AR     0.000000        39.9480           0
    2578 ARGN 2578 ARG  ARG  AR     0.000000        39.9480           0
    2579 ARGN 2579 ARG  ARG  AR     0.000000        39.9480           0
    2580 ARGN 2580 ARG  ARG  AR     0.000000        39.9480           0
    2581 ARGN 2581 ARG  ARG  AR     0.000000        39.9480           0
    2582 ARGN 2582 ARG  ARG  AR     0.000000        39.9480           0
    2583 ARGN 2583 ARG  ARG  AR     0.000000        39.9480           0
    2584 ARGN 2584 ARG  ARG  AR     0.000000        39.9480           0
    2585 ARGN 2585 ARG  ARG  AR     0.000000        39.9480           0
    2586 ARGN 2586 ARG  ARG  AR     0.000000        39.9480           0
    2587 ARGN 2587 ARG  ARG  AR     0.000000        39.9480           0
    2588 ARGN 2588 ARG  ARG  AR     0.000000        39.9480           0
    2589 ARGN 2589 ARG  ARG  AR     0.000000        39.9480           0
    2590 ARGN 2590 ARG  ARG  AR     0.000000        39.9480           0
    2591 ARGN 2591 ARG  ARG  AR     0.000000        39.9480           0
    2592 ARGN 2592 ARG  ARG  AR     0.000000        39.9480           0
    2593 ARGN 2593 ARG  ARG  AR     0.000000        39.9480           0
    2594 ARGN 2594 ARG  ARG  AR     0.000000        39.9480           0
    2595 ARGN 2595 ARG  ARG  AR     0.000000        39.9480           0
    2596 ARGN 2596 ARG  ARG  AR     0.000000        39.9480           0
    2597 ARGN 2597 ARG  ARG  AR     0.000000        39.9480           0
    2598 ARGN 2598 ARG  ARG  AR     0.000000        39.9480           0
    2599 ARGN 2599 ARG  ARG  AR     0.000000        39.9480           0
    2600 ARGN 2600 ARG  ARG  AR     0.000000        39.9480           0
    2601 ARGN 2601 ARG  ARG  AR     0.000000        39.9480           0
    2602 ARGN 2602 ARG  ARG  AR     0.000000        39.9480           0
    2603 ARGN 2603 ARG  ARG  AR     0.000000        39.9480           0
    2604 ARGN 2604 ARG  ARG  AR     0.000000        39.9480           0
    2605 ARGN 2605 ARG  ARG  AR     0.000000        39.9480           0
    2606 ARGN 2606 ARG  ARG  AR     0.000000        39.9480           0
    2607 ARGN 2607 ARG  ARG  AR     0.000000        39.9480           0
    2608 ARGN 2608 ARG  ARG  AR     0.000000        39.9480           0
    2609 ARGN 2609 ARG  ARG  AR     0.000000        39.9480           0
    2610 ARGN 2610 ARG  ARG  AR     0.000000        39.9480           0
    2611 ARGN 2611 ARG  ARG  AR     0.000000        39.9480           0
    2612 ARGN 2612 ARG  ARG  AR     0.000000        39.9480           0
    2613 ARGN 2613 ARG  ARG  AR     0.000000        39.9480           0
    2614 ARGN 2614 ARG  ARG  AR     0.000000        39.9480           0
    2615 ARGN 2615 ARG  ARG  AR     0.000000        39.9480           0
    2616 ARGN 2616 ARG  ARG  AR     0.000000        39.9480           0
    2617 ARGN 2617 ARG  ARG  AR     0.000000        39.9480           0
    2618 ARGN 2618 ARG  ARG  AR     0.000000        39.9480           0
    2619 ARGN 2619 ARG  ARG  AR     0.000000        39.9480           0
    2620 ARGN 2620 ARG  ARG  AR     0.000000        39.9480           0
    2621 ARGN 2621 ARG  ARG  AR     0.000000        39.9480           0
    2622 ARGN 2622 ARG  ARG  AR     0.000000        39.9480           0
    2623 ARGN 2623 ARG  ARG  AR     0.000000        39.9480           0
    2624 ARGN 2624 ARG  ARG  AR     0.000000        39.9480           0
    2625 ARGN 2625 ARG  ARG  AR     0.000000        39.9480           0
    2626 ARGN 2626 ARG  ARG  AR     0.000000        39.9480           0
    2627 ARGN 2627 ARG  ARG  AR     0.000000        39.9480           0
    2628 ARGN 2628 ARG  ARG  AR     0.000000        39.9480           0
    2629 ARGN 2629 ARG  ARG  AR     0.000000        39.9480           0
    2630 ARGN 2630 ARG  ARG  AR     0.000000        39.9480           0
    2631 ARGN 2631 ARG  ARG  AR     0.000000        39.9480           0
    2632 ARGN 2632 ARG  ARG  AR     0.000000        39.9480           0
    2633 ARGN 2633 ARG  ARG  AR     0.000000        39.9480           0
    2634 ARGN 2634 ARG  ARG  AR     0.000000        39.9480           0
    2635 ARGN 2635 ARG  ARG  AR     0.000000        39.9480           0
    2636 ARGN 2636 ARG  ARG  AR     0.000000        39.9480           0
    2637 ARGN 2637 ARG  ARG  AR     0.000000        39.9480           0
    2638 ARGN 2638 ARG  ARG  AR     0.000000        39.9480           0
    2639 ARGN 2639 ARG  ARG  AR     0.000000        39.9480           0
    2640 ARGN 2640 ARG  ARG  AR     0.000000        39.9480           0
    2641 ARGN 2641 ARG  ARG  AR     0.000000        39.9480           0
    2642 ARGN 2642 ARG  ARG  AR     0.000000        39.9480           0
    2643 ARGN 2643 ARG  ARG  AR     0.000000        39.9480           0
    2644 ARGN 2644 ARG  ARG  AR     0.000000        39.9480           0
    2645 ARGN 2645 ARG  ARG  AR     0.000000        39.9480           0
    2646 ARGN 2646 ARG  ARG  AR     0.000000        39.9480           0
    2647 ARGN 2647 ARG  ARG  AR     0.000000        39.9480           0
    2648 ARGN 2648 ARG  ARG  AR     0.000000        39.9480           0
    2649 ARGN 2649 ARG  ARG  AR     0.000000        39.9480           0
    2650 ARGN 2650 ARG  ARG  AR     0.000000        39.9480           0
    2651 ARGN 2651 ARG  ARG  AR     0.000000        39.9480           0
    2652 ARGN 2652 ARG  ARG  AR     0.000000        39.9480           0
    2653 ARGN 2653 ARG  ARG  AR     0.000000        39.9480           0
    2654 ARGN 2654 ARG  ARG  AR     0.000000        39.9480           0
    2655 ARGN 2655 ARG  ARG  AR     0.000000        39.9480           0
    2656 ARGN 2656 ARG  ARG  AR     0.000000        39.9480           0
    2657 ARGN 2657 ARG  ARG  AR     0.000000        39.9480           0
    2658 ARGN 2658 ARG  ARG  AR     0.000000        39.9480           0
    2659 ARGN 2659 ARG  ARG  AR     0.000000        39.9480           0
    2660 ARGN 2660 ARG  ARG  AR     0.000000        39.9480           0
    2661 ARGN 2661 ARG  ARG  AR     0.000000        39.9480           0
    2662 ARGN 2662 ARG  ARG  AR     0.000000        39.9480           0
    2663 ARGN 2663 ARG  ARG  AR     0.000000        39.9480           0
    2664 ARGN 2664 ARG  ARG  AR     0.000000        39.9480           0
    2665 ARGN 2665 ARG  ARG  AR     0.000000        39.9480           0
    2666 ARGN 2666 ARG  ARG  AR     0.000000        39.9480           0
    2667 ARGN 2667 ARG  ARG  AR     0.000000        39.9480           0
    2668 ARGN 2668 ARG  ARG  AR     0.000000        39.9480           0
    2669 ARGN 2669 ARG  ARG  AR     0.000000        39.9480           0
    2670 ARGN 2670 ARG  ARG  AR     0.000000        39.9480           0
    2671 ARGN 2671 ARG  ARG  AR     0.000000        39.9480           0
    2672 ARGN 2672 ARG  ARG  AR     0.000000        39.9480           0
    2673 ARGN 2673 ARG  ARG  AR     0.000000        39.9480           0
    2674 ARGN 2674 ARG  ARG  AR     0.000000        39.9480           0
    2675 ARGN 2675 ARG  ARG  AR     0.000000        39.9480           0
    2676 ARGN 2676 ARG  ARG  AR     0.000000        39.9480           0
    2677 ARGN 2677 ARG  ARG  AR     0.000000        39.9480           0
    2678 ARGN 2678 ARG  ARG  AR     0.000000        39.9480           0
    2679 ARGN 2679 ARG  ARG  AR     0.000000        39.9480           0
    2680 ARGN 2680 ARG  ARG  AR     0.000000        39.9480           0
    2681 ARGN 2681 ARG  ARG  AR     0.000000        39.9480           0
    2682 ARGN 2682 ARG  ARG  AR     0.000000        39.9480           0
    2683 ARGN 2683 ARG  ARG  AR     0.000000        39.9480           0
    2684 ARGN 2684 ARG  ARG  AR     0.000000        39.9480           0
    2685 ARGN 2685 ARG  ARG  AR     0.000000        39.9480           0
    2686 ARGN 2686 ARG  ARG  AR     0.000000        39.9480           0
    2687 ARGN 2687 ARG  ARG  AR     0.000000        39.9480           0
    2688 ARGN 2688 ARG  ARG  AR     0.000000        39.9480           0
    2689 ARGN 2689 ARG  ARG  AR     0.000000        39.9480           0
    2690 ARGN 2690 ARG  ARG  AR     0.000000        39.9480           0
    2691 ARGN 2691 ARG  ARG  AR     0.000000        39.9480           0
    2692 ARGN 2692 ARG  ARG  AR     0.000000        39.9480           0
    2693 ARGN 2693 ARG  ARG  AR     0.000000        39.9480           0
    2694 ARGN 2694 ARG  ARG  AR     0.000000        39.9480           0
    2695 ARGN 2695 ARG  ARG  AR     0.000000        39.9480           0
    2696 ARGN 2696 ARG  ARG  AR     0.000000        39.9480           0
    2697 ARGN 2697 ARG  ARG  AR     0.000000        39.9480           0
    2698 ARGN 2698 ARG  ARG  AR     0.000000        39.9480           0
    2699 ARGN 2699 ARG  ARG  AR     0.000000        39.9480           0
    2700 ARGN 2700 ARG  ARG  AR     0.000000        39.9480           0
    2701 ARGN 2701 ARG  ARG  AR     0.000000        39.9480           0
    2702 ARGN 2702 ARG  ARG  AR     0.000000        39.9480           0
    2703 ARGN 2703 ARG  ARG  AR     0.000000        39.9480           0
    2704 ARGN 2704 ARG  ARG  AR     0.000000        39.9480           0
    2705 ARGN 2705 ARG  ARG  AR     0.000000        39.9480           0
    2706 ARGN 2706 ARG  ARG  AR     0.000000        39.9480           0
    2707 ARGN 2707 ARG  ARG  AR     0.000000        39.9480           0
    2708 ARGN 2708 ARG  ARG  AR     0.000000        39.9480           0
    2709 ARGN 2709 ARG  ARG  AR     0.000000        39.9480           0
    2710 ARGN 2710 ARG  ARG  AR     0.000000        39.9480           0
    2711 ARGN 2711 ARG  ARG  AR     0.000000        39.9480           0
    2712 ARGN 2712 ARG  ARG  AR     0.000000        39.9480           0
    2713 ARGN 2713 ARG  ARG  AR     0.000000        39.9480           0
    2714 ARGN 2714 ARG  ARG  AR     0.000000        39.9480           0
    2715 ARGN 2715 ARG  ARG  AR     0.000000        39.9480           0
    2716 ARGN 2716 ARG  ARG  AR     0.000000        39.9480           0
    2717 ARGN 2717 ARG  ARG  AR     0.000000        39.9480           0
    2718 ARGN 2718 ARG  ARG  AR     0.000000        39.9480           0
    2719 ARGN 2719 ARG  ARG  AR     0.000000        39.9480           0
    2720 ARGN 2720 ARG  ARG  AR     0.000000        39.9480           0
    2721 ARGN 2721 ARG  ARG  AR     0.000000        39.9480           0
    2722 ARGN 2722 ARG  ARG  AR     0.000000        39.9480           0
    2723 ARGN 2723 ARG  ARG  AR     0.000000        39.9480           0
    2724 ARGN 2724 ARG  ARG  AR     0.000000        39.9480           0
    2725 ARGN 2725 ARG  ARG  AR     0.000000        39.9480           0
    2726 ARGN 2726 ARG  ARG  AR     0.000000        39.9480           0
    2727 ARGN 2727 ARG  ARG  AR     0.000000        39.9480           0
    2728 ARGN 2728 ARG  ARG  AR     0.000000        39.9480           0
    2729 ARGN 2729 ARG  ARG  AR     0.000000        39.9480           0
    2730 ARGN 2730 ARG  ARG  AR     0.000000        39.9480           0
    2731 ARGN 2731 ARG  ARG  AR     0.000000        39.9480           0
    2732 ARGN 2732 ARG  ARG  AR     0.000000        39.9480           0
    2733 ARGN 2733 ARG  ARG  AR     0.000000        39.9480           0
    2734 ARGN 2734 ARG  ARG  AR     0.000000        39.9480           0
    2735 ARGN 2735 ARG  ARG  AR     0.000000        39.9480           0
    2736 ARGN 2736 ARG  ARG  AR     0.000000        39.9480           0
    2737 ARGN 2737 ARG  ARG  AR     0.000000        39.9480           0
    2738 ARGN 2738 ARG  ARG  AR     0.000000        39.9480           0
    2739 ARGN 2739 ARG  ARG  AR     0.000000        39.9480           0
    2740 ARGN 2740 ARG  ARG  AR     0.000000        39.9480           0
    2741 ARGN 2741 ARG  ARG  AR     0.000000        39.9480           0
    2742 ARGN 2742 ARG  ARG  AR     0.000000        39.9480           0
    2743 ARGN 2743 ARG  ARG  AR     0.000000        39.9480           0
    2744 ARGN 2744 ARG  ARG  AR     0.000000        39.9480           0
    2745 ARGN 2745 ARG  ARG  AR     0.000000        39.9480           0
    2746 ARGN 2746 ARG  ARG  AR     0.000000        39.9480           0
    2747 ARGN 2747 ARG  ARG  AR     0.000000        39.9480           0
    2748 ARGN 2748 ARG  ARG  AR     0.000000        39.9480           0
    2749 ARGN 2749 ARG  ARG  AR     0.000000        39.9480           0
    2750 ARGN 2750 ARG  ARG  AR     0.000000        39.9480           0
    2751 ARGN 2751 ARG  ARG  AR     0.000000        39.9480           0
    2752 ARGN 2752 ARG  ARG  AR     0.000000        39.9480           0
    2753 ARGN 2753 ARG  ARG  AR     0.000000        39.9480           0
    2754 ARGN 2754 ARG  ARG  AR     0.000000        39.9480           0
    2755 ARGN 2755 ARG  ARG  AR     0.000000        39.9480           0
    2756 ARGN 2756 ARG  ARG  AR     0.000000        39.9480           0
    2757 ARGN 2757 ARG  ARG  AR     0.000000        39.9480           0
    2758 ARGN 2758 ARG  ARG  AR     0.000000        39.9480           0
    2759 ARGN 2759 ARG  ARG  AR     0.000000        39.9480           0
    2760 ARGN 2760 ARG  ARG  AR     0.000000        39.9480           0
    2761 ARGN 2761 ARG  ARG  AR     0.000000        39.9480           0
    2762 ARGN 2762 ARG  ARG  AR     0.000000        39.9480           0
    2763 ARGN 2763 ARG  ARG  AR     0.000000        39.9480           0
    2764 ARGN 2764 ARG  ARG  AR     0.000000        39.9480           0
    2765 ARGN 2765 ARG  ARG  AR     0.000000        39.9480           0
    2766 ARGN 2766 ARG  ARG  AR     0.000000        39.9480           0
    2767 ARGN 2767 ARG  ARG  AR     0.000000        39.9480           0
    2768 ARGN 2768 ARG  ARG  AR     0.000000        39.9480           0
    2769 ARGN 2769 ARG  ARG  AR     0.000000        39.9480           0
    2770 ARGN 2770 ARG  ARG  AR     0.000000        39.9480           0
    2771 ARGN 2771 ARG  ARG  AR     0.000000        39.9480           0
    2772 ARGN 2772 ARG  ARG  AR     0.000000        39.9480           0
    2773 ARGN 2773 ARG  ARG  AR     0.000000        39.9480           0
    2774 ARGN 2774 ARG  ARG  AR     0.000000        39.9480           0
    2775 ARGN 2775 ARG  ARG  AR     0.000000        39.9480           0
    2776 ARGN 2776 ARG  ARG  AR     0.000000        39.9480           0
    2777 ARGN 2777 ARG  ARG  AR     0.000000        39.9480           0
    2778 ARGN 2778 ARG  ARG  AR     0.000000        39.9480           0
    2779 ARGN 2779 ARG  ARG  AR     0.000000        39.9480           0
    2780 ARGN 2780 ARG  ARG  AR     0.000000        39.9480           0
    2781 ARGN 2781 ARG  ARG  AR     0.000000        39.9480           0
    2782 ARGN 2782 ARG  ARG  AR     0.000000        39.9480           0
    2783 ARGN 2783 ARG  ARG  AR     0.000000        39.9480           0
    2784 ARGN 2784 ARG  ARG  AR     0.000000        39.9480           0
    2785 ARGN 2785 ARG  ARG  AR     0.000000        39.9480           0
    2786 ARGN 2786 ARG  ARG  AR     0.000000        39.9480           0
    2787 ARGN 2787 ARG  ARG  AR     0.000000        39.9480           0
    2788 ARGN 2788 ARG  ARG  AR     0.000000        39.9480           0
    2789 ARGN 2789 ARG  ARG  AR     0.000000        39.9480           0
    2790 ARGN 2790 ARG  ARG  AR     0.000000        39.9480           0
    2791 ARGN 2791 ARG  ARG  AR     0.000000        39.9480           0
    2792 ARGN 2792 ARG  ARG  AR     0.000000        39.9480           0
    2793 ARGN 2793 ARG  ARG  AR     0.000000        39.9480           0
    2794 ARGN 2794 ARG  ARG  AR     0.000000        39.9480           0
    2795 ARGN 2795 ARG  ARG  AR     0.000000        39.9480           0
    2796 ARGN 2796 ARG  ARG  AR     0.000000        39.9480           0
    2797 ARGN 2797 ARG  ARG  AR     0.000000        39.9480           0
    2798 ARGN 2798 ARG  ARG  AR     0.000000        39.9480           0
    2799 ARGN 2799 ARG  ARG  AR     0.000000        39.9480           0
    2800 ARGN 2800 ARG  ARG  AR     0.000000        39.9480           0
    2801 ARGN 2801 ARG  ARG  AR     0.000000        39.9480           0
    2802 ARGN 2802 ARG  ARG  AR     0.000000        39.9480           0
    2803 ARGN 2803 ARG  ARG  AR     0.000000        39.9480           0
    2804 ARGN 2804 ARG  ARG  AR     0.000000        39.9480           0
    2805 ARGN 2805 ARG  ARG  AR     0.000000        39.9480           0
    2806 ARGN 2806 ARG  ARG  AR     0.000000        39.9480           0
    2807 ARGN 2807 ARG  ARG  AR     0.000000        39.9480           0
    2808 ARGN 2808 ARG  ARG  AR     0.000000        39.9480           0
    2809 ARGN 2809 ARG  ARG  AR     0.000000        39.9480           0
    2810 ARGN 2810 ARG  ARG  AR     0.000000        39.9480           0
    2811 ARGN 2811 ARG  ARG  AR     0.000000        39.9480           0
    2812 ARGN 2812 ARG  ARG  AR     0.000000        39.9480           0
    2813 ARGN 2813 ARG  ARG  AR     0.000000        39.9480           0
    2814 ARGN 2814 ARG  ARG  AR     0.000000        39.9480           0
    2815 ARGN 2815 ARG  ARG  AR     0.000000        39.9480           0
    2816 ARGN 2816 ARG  ARG  AR     0.000000        39.9480           0
    2817 ARGN 2817 ARG  ARG  AR     0.000000        39.9480           0
    2818 ARGN 2818 ARG  ARG  AR     0.000000        39.9480           0
    2819 ARGN 2819 ARG  ARG  AR     0.000000        39.9480           0
    2820 ARGN 2820 ARG  ARG  AR     0.000000        39.9480           0
    2821 ARGN 2821 ARG  ARG  AR     0.000000        39.9480           0
    2822 ARGN 2822 ARG  ARG  AR     0.000000        39.9480           0
    2823 ARGN 2823 ARG  ARG  AR     0.000000        39.9480           0
    2824 ARGN 2824 ARG  ARG  AR     0.000000        39.9480           0
    2825 ARGN 2825 ARG  ARG  AR     0.000000        39.9480           0
    2826 ARGN 2826 ARG  ARG  AR     0.000000        39.9480           0
    2827 ARGN 2827 ARG  ARG  AR     0.000000        39.9480           0
    2828 ARGN 2828 ARG  ARG  AR     0.000000        39.9480           0
    2829 ARGN 2829 ARG  ARG  AR     0.000000        39.9480           0
    2830 ARGN 2830 ARG  ARG  AR     0.000000        39.9480           0
    2831 ARGN 2831 ARG  ARG  AR     0.000000        39.9480           0
    2832 ARGN 2832 ARG  ARG  AR     0.000000        39.9480           0
    2833 ARGN 2833 ARG  ARG  AR     0.000000        39.9480           0
    2834 ARGN 2834 ARG  ARG  AR     0.000000        39.9480           0
    2835 ARGN 2835 ARG  ARG  AR     0.000000        39.9480           0
    2836 ARGN 2836 ARG  ARG  AR     0.000000        39.9480           0
    2837 ARGN 2837 ARG  ARG  AR     0.000000        39.9480           0
    2838 ARGN 2838 ARG  ARG  AR     0.000000        39.9480           0
    2839 ARGN 2839 ARG  ARG  AR     0.000000        39.9480           0
    2840 ARGN 2840 ARG  ARG  AR     0.000000        39.9480           0
    2841 ARGN 2841 ARG  ARG  AR     0.000000        39.9480           0
    2842 ARGN 2842 ARG  ARG  AR     0.000000        39.9480           0
    2843 ARGN 2843 ARG  ARG  AR     0.000000        39.9480           0
    2844 ARGN 2844 ARG  ARG  AR     0.000000        39.9480           0
    2845 ARGN 2845 ARG  ARG  AR     0.000000        39.9480           0
    2846 ARGN 2846 ARG  ARG  AR     0.000000        39.9480           0
    2847 ARGN 2847 ARG  ARG  AR     0.000000        39.9480           0
    2848 ARGN 2848 ARG  ARG  AR     0.000000        39.9480           0
    2849 ARGN 2849 ARG  ARG  AR     0.000000        39.9480           0
    2850 ARGN 2850 ARG  ARG  AR     0.000000        39.9480           0
    2851 ARGN 2851 ARG  ARG  AR     0.000000        39.9480           0
    2852 ARGN 2852 ARG  ARG  AR     0.000000        39.9480           0
    2853 ARGN 2853 ARG  ARG  AR     0.000000        39.9480           0
    2854 ARGN 2854 ARG  ARG  AR     0.000000        39.9480           0
    2855 ARGN 2855 ARG  ARG  AR     0.000000        39.9480           0
    2856 ARGN 2856 ARG  ARG  AR     0.000000        39.9480           0
    2857 ARGN 2857 ARG  ARG  AR     0.000000        39.9480           0
    2858 ARGN 2858 ARG  ARG  AR     0.000000        39.9480           0
    2859 ARGN 2859 ARG  ARG  AR     0.000000        39.9480           0
    2860 ARGN 2860 ARG  ARG  AR     0.000000        39.9480           0
    2861 ARGN 2861 ARG  ARG  AR     0.000000        39.9480           0
    2862 ARGN 2862 ARG  ARG  AR     0.000000        39.9480           0
    2863 ARGN 2863 ARG  ARG  AR     0.000000        39.9480           0
    2864 ARGN 2864 ARG  ARG  AR     0.000000        39.9480           0
    2865 ARGN 2865 ARG  ARG  AR     0.000000        39.9480           0
    2866 ARGN 2866 ARG  ARG  AR     0.000000        39.9480           0
    2867 ARGN 2867 ARG  ARG  AR     0.000000        39.9480           0
    2868 ARGN 2868 ARG  ARG  AR     0.000000        39.9480           0
    2869 ARGN 2869 ARG  ARG  AR     0.000000        39.9480           0
    2870 ARGN 2870 ARG  ARG  AR     0.000000        39.9480           0
    2871 ARGN 2871 ARG  ARG  AR     0.000000        39.9480           0
    2872 ARGN 2872 ARG  ARG  AR     0.000000        39.9480           0
    2873 ARGN 2873 ARG  ARG  AR     0.000000        39.9480           0
    2874 ARGN 2874 ARG  ARG  AR     0.000000        39.9480           0
    2875 ARGN 2875 ARG  ARG  AR     0.000000        39.9480           0
    2876 ARGN 2876 ARG  ARG  AR     0.000000        39.9480           0
    2877 ARGN 2877 ARG  ARG  AR     0.000000        39.9480           0
    2878 ARGN 2878 ARG  ARG  AR     0.000000        39.9480           0
    2879 ARGN 2879 ARG  ARG  AR     0.000000        39.9480           0
    2880 ARGN 2880 ARG  ARG  AR     0.000000        39.9480           0
    2881 ARGN 2881 ARG  ARG  AR     0.000000        39.9480           0
    2882 ARGN 2882 ARG  ARG  AR     0.000000        39.9480           0
    2883 ARGN 2883 ARG  ARG  AR     0.000000        39.9480           0
    2884 ARGN 2884 ARG  ARG  AR     0.000000        39.9480           0
    2885 ARGN 2885 ARG  ARG  AR     0.000000        39.9480           0
    2886 ARGN 2886 ARG  ARG  AR     0.000000        39.9480           0
    2887 ARGN 2887 ARG  ARG  AR     0.000000        39.9480           0
    2888 ARGN 2888 ARG  ARG  AR     0.000000        39.9480           0
    2889 ARGN 2889 ARG  ARG  AR     0.000000        39.9480           0
    2890 ARGN 2890 ARG  ARG  AR     0.000000        39.9480           0
    2891 ARGN 2891 ARG  ARG  AR     0.000000        39.9480           0
    2892 ARGN 2892 ARG  ARG  AR     0.000000        39.9480           0
    2893 ARGN 2893 ARG  ARG  AR     0.000000        39.9480           0
    2894 ARGN 2894 ARG  ARG  AR     0.000000        39.9480           0
    2895 ARGN 2895 ARG  ARG  AR     0.000000        39.9480           0
    2896 ARGN 2896 ARG  ARG  AR     0.000000        39.9480           0
    2897 ARGN 2897 ARG  ARG  AR     0.000000        39.9480           0
    2898 ARGN 2898 ARG  ARG  AR     0.000000        39.9480           0
    2899 ARGN 2899 ARG  ARG  AR     0.000000        39.9480           0
    2900 ARGN 2900 ARG  ARG  AR     0.000000        39.9480           0
    2901 ARGN 2901 ARG  ARG  AR     0.000000        39.9480           0
    2902 ARGN 2902 ARG  ARG  AR     0.000000        39.9480           0
    2903 ARGN 2903 ARG  ARG  AR     0.000000        39.9480           0
    2904 ARGN 2904 ARG  ARG  AR     0.000000        39.9480           0
    2905 ARGN 2905 ARG  ARG  AR     0.000000        39.9480           0
    2906 ARGN 2906 ARG  ARG  AR     0.000000        39.9480           0
    2907 ARGN 2907 ARG  ARG  AR     0.000000        39.9480           0
    2908 ARGN 2908 ARG  ARG  AR     0.000000        39.9480           0
    2909 ARGN 2909 ARG  ARG  AR     0.000000        39.9480           0
    2910 ARGN 2910 ARG  ARG  AR     0.000000        39.9480           0
    2911 ARGN 2911 ARG  ARG  AR     0.000000        39.9480           0
    2912 ARGN 2912 ARG  ARG  AR     0.000000        39.9480           0
    2913 ARGN 2913 ARG  ARG  AR     0.000000        39.9480           0
    2914 ARGN 2914 ARG  ARG  AR     0.000000        39.9480           0
    2915 ARGN 2915 ARG  ARG  AR     0.000000        39.9480           0
    2916 ARGN 2916 ARG  ARG  AR     0.000000        39.9480           0
    2917 ARGN 2917 ARG  ARG  AR     0.000000        39.9480           0
    2918 ARGN 2918 ARG  ARG  AR     0.000000        39.9480           0
    2919 ARGN 2919 ARG  ARG  AR     0.000000        39.9480           0
    2920 ARGN 2920 ARG  ARG  AR     0.000000        39.9480           0
    2921 ARGN 2921 ARG  ARG  AR     0.000000        39.9480           0
    2922 ARGN 2922 ARG  ARG  AR     0.000000        39.9480           0
    2923 ARGN 2923 ARG  ARG  AR     0.000000        39.9480           0
    2924 ARGN 2924 ARG  ARG  AR     0.000000        39.9480           0
    2925 ARGN 2925 ARG  ARG  AR     0.000000        39.9480           0
    2926 ARGN 2926 ARG  ARG  AR     0.000000        39.9480           0
    2927 ARGN 2927 ARG  ARG  AR     0.000000        39.9480           0
    2928 ARGN 2928 ARG  ARG  AR     0.000000        39.9480           0
    2929 ARGN 2929 ARG  ARG  AR     0.000000        39.9480           0
    2930 ARGN 2930 ARG  ARG  AR     0.000000        39.9480           0
    2931 ARGN 2931 ARG  ARG  AR     0.000000        39.9480           0
    2932 ARGN 2932 ARG  ARG  AR     0.000000        39.9480           0
    2933 ARGN 2933 ARG  ARG  AR     0.000000        39.9480           0
    2934 ARGN 2934 ARG  ARG  AR     0.000000        39.9480           0
    2935 ARGN 2935 ARG  ARG  AR     0.000000        39.9480           0
    2936 ARGN 2936 ARG  ARG  AR     0.000000        39.9480           0
    2937 ARGN 2937 ARG  ARG  AR     0.000000        39.9480           0
    2938 ARGN 2938 ARG  ARG  AR     0.000000        39.9480           0
    2939 ARGN 2939 ARG  ARG  AR     0.000000        39.9480           0
    2940 ARGN 2940 ARG  ARG  AR     0.000000        39.9480           0
    2941 ARGN 2941 ARG  ARG  AR     0.000000        39.9480           0
    2942 ARGN 2942 ARG  ARG  AR     0.000000        39.9480           0
    2943 ARGN 2943 ARG  ARG  AR     0.000000        39.9480           0
    2944 ARGN 2944 ARG  ARG  AR     0.000000        39.9480           0
    2945 ARGN 2945 ARG  ARG  AR     0.000000        39.9480           0
    2946 ARGN 2946 ARG  ARG  AR     0.000000        39.9480           0
    2947 ARGN 2947 ARG  ARG  AR     0.000000        39.9480           0
    2948 ARGN 2948 ARG  ARG  AR     0.000000        39.9480           0
    2949 ARGN 2949 ARG  ARG  AR     0.000000        39.9480           0
    2950 ARGN 2950 ARG  ARG  AR     0.000000        39.9480           0
    2951 ARGN 2951 ARG  ARG  AR     0.000000        39.9480           0
    2952 ARGN 2952 ARG  ARG  AR     0.000000        39.9480           0
    2953 ARGN 2953 ARG  ARG  AR     0.000000        39.9480           0
    2954 ARGN 2954 ARG  ARG  AR     0.000000        39.9480           0
    2955 ARGN 2955 ARG  ARG  AR     0.000000        39.9480           0
    2956 ARGN 2956 ARG  ARG  AR     0.000000        39.9480           0
    2957 ARGN 2957 ARG  ARG  AR     0.000000        39.9480           0
    2958 ARGN 2958 ARG  ARG  AR     0.000000        39.9480           0
    2959 ARGN 2959 ARG  ARG  AR     0.000000        39.9480           0
    2960 ARGN 2960 ARG  ARG  AR     0.000000        39.9480           0
    2961 ARGN 2961 ARG  ARG  AR     0.000000        39.9480           0
    2962 ARGN 2962 ARG  ARG  AR     0.000000        39.9480           0
    2963 ARGN 2963 ARG  ARG  AR     0.000000        39.9480           0
    2964 ARGN 2964 ARG  ARG  AR     0.000000        39.9480           0
    2965 ARGN 2965 ARG  ARG  AR     0.000000        39.9480           0
    2966 ARGN 2966 ARG  ARG  AR     0.000000        39.9480           0
    2967 ARGN 2967 ARG  ARG  AR     0.000000        39.9480           0
    2968 ARGN 2968 ARG  ARG  AR     0.000000        39.9480           0
    2969 ARGN 2969 ARG  ARG  AR     0.000000        39.9480           0
    2970 ARGN 2970 ARG  ARG  AR     0.000000        39.9480           0
    2971 ARGN 2971 ARG  ARG  AR     0.000000        39.9480           0
    2972 ARGN 2972 ARG  ARG  AR     0.000000        39.9480           0
    2973 ARGN 2973 ARG  ARG  AR     0.000000        39.9480           0
    2974 ARGN 2974 ARG  ARG  AR     0.000000        39.9480           0
    2975 ARGN 2975 ARG  ARG  AR     0.000000        39.9480           0
    2976 ARGN 2976 ARG  ARG  AR     0.000000        39.9480           0
    2977 ARGN 2977 ARG  ARG  AR     0.000000        39.9480           0
    2978 ARGN 2978 ARG  ARG  AR     0.000000        39.9480           0
    2979 ARGN 2979 ARG  ARG  AR     0.000000        39.9480           0
    2980 ARGN 2980 ARG  ARG  AR     0.000000        39.9480           0
    2981 ARGN 2981 ARG  ARG  AR     0.000000        39.9480           0
    2982 ARGN 2982 ARG  ARG  AR     0.000000        39.9480           0
    2983 ARGN 2983 ARG  ARG  AR     0.000000        39.9480           0
    2984 ARGN 2984 ARG  ARG  AR     0.000000        39.9480           0
    2985 ARGN 2985 ARG  ARG  AR     0.000000        39.9480           0
    2986 ARGN 2986 ARG  ARG  AR     0.000000        39.9480           0
    2987 ARGN 2987 ARG  ARG  AR     0.000000        39.9480           0
    2988 ARGN 2988 ARG  ARG  AR     0.000000        39.9480           0
    2989 ARGN 2989 ARG  ARG  AR     0.000000        39.9480           0
    2990 ARGN 2990 ARG  ARG  AR     0.000000        39.9480           0
    2991 ARGN 2991 ARG  ARG  AR     0.000000        39.9480           0
    2992 ARGN 2992 ARG  ARG  AR     0.000000        39.9480           0
    2993 ARGN 2993 ARG  ARG  AR     0.000000        39.9480           0
    2994 ARGN 2994 ARG  ARG  AR     0.000000        39.9480           0
    2995 ARGN 2995 ARG  ARG  AR     0.000000        39.9480           0
    2996 ARGN 2996 ARG  ARG  AR     0.000000        39.9480           0
    2997 ARGN 2997 ARG  ARG  AR     0.000000        39.9480           0
    2998 ARGN 2998 ARG  ARG  AR     0.000000        39.9480           0
    2999 ARGN 2999 ARG  ARG  AR     0.000000        39.9480           0
    3000 ARGN 3000 ARG  ARG  AR     0.000000        39.9480           0
    3001 ARGN 3001 ARG  ARG  AR     0.000000        39.9480           0
    3002 ARGN 3002 ARG  ARG  AR     0.000000        39.9480           0
    3003 ARGN 3003 ARG  ARG  AR     0.000000        39.9480           0
    3004 ARGN 3004 ARG  ARG  AR     0.000000        39.9480           0
    3005 ARGN 3005 ARG  ARG  AR     0.000000        39.9480           0
    3006 ARGN 3006 ARG  ARG  AR     0.000000        39.9480           0
    3007 ARGN 3007 ARG  ARG  AR     0.000000        39.9480           0
    3008 ARGN 3008 ARG  ARG  AR     0.000000        39.9480           0
    3009 ARGN 3009 ARG  ARG  AR     0.000000        39.9480           0
    3010 ARGN 3010 ARG  ARG  AR     0.000000        39.9480           0
    3011 ARGN 3011 ARG  ARG  AR     0.000000        39.9480           0
    3012 ARGN 3012 ARG  ARG  AR     0.000000        39.9480           0
    3013 ARGN 3013 ARG  ARG  AR     0.000000        39.9480           0
    3014 ARGN 3014 ARG  ARG  AR     0.000000        39.9480           0
    3015 ARGN 3015 ARG  ARG  AR     0.000000        39.9480           0
    3016 ARGN 3016 ARG  ARG  AR     0.000000        39.9480           0
    3017 ARGN 3017 ARG  ARG  AR     0.000000        39.9480           0
    3018 ARGN 3018 ARG  ARG  AR     0.000000        39.9480           0
    3019 ARGN 3019 ARG  ARG  AR     0.000000        39.9480           0
    3020 ARGN 3020 ARG  ARG  AR     0.000000        39.9480           0
    3021 ARGN 3021 ARG  ARG  AR     0.000000        39.9480           0
    3022 ARGN 3022 ARG  ARG  AR     0.000000        39.9480           0
    3023 ARGN 3023 ARG  ARG  AR     0.000000        39.9480           0
    3024 ARGN 3024 ARG  ARG  AR     0.000000        39.9480           0
    3025 ARGN 3025 ARG  ARG  AR     0.000000        39.9480           0
    3026 ARGN 3026 ARG  ARG  AR     0.000000        39.9480           0
    3027 ARGN 3027 ARG  ARG  AR     0.000000        39.9480           0
    3028 ARGN 3028 ARG  ARG  AR     0.000000        39.9480           0
    3029 ARGN 3029 ARG  ARG  AR     0.000000        39.9480           0
    3030 ARGN 3030 ARG  ARG  AR     0.000000        39.9480           0
    3031 ARGN 3031 ARG  ARG  AR     0.000000        39.9480           0
    3032 ARGN 3032 ARG  ARG  AR     0.000000        39.9480           0
    3033 ARGN 3033 ARG  ARG  AR     0.000000        39.9480           0
    3034 ARGN 3034 ARG  ARG  AR     0.000000        39.9480           0
    3035 ARGN 3035 ARG  ARG  AR     0.000000        39.9480           0
    3036 ARGN 3036 ARG  ARG  AR     0.000000        39.9480           0
    3037 ARGN 3037 ARG  ARG  AR     0.000000        39.9480           0
    3038 ARGN 3038 ARG  ARG  AR     0.000000        39.9480           0
    3039 ARGN 3039 ARG  ARG  AR     0.000000        39.9480           0
    3040 ARGN 3040 ARG  ARG  AR     0.000000        39.9480           0
    3041 ARGN 3041 ARG  ARG  AR     0.000000        39.9480           0
    3042 ARGN 3042 ARG  ARG  AR     0.000000        39.9480           0
    3043 ARGN 3043 ARG  ARG  AR     0.000000        39.9480           0
    3044 ARGN 3044 ARG  ARG  AR     0.000000        39.9480           0
    3045 ARGN 3045 ARG  ARG  AR     0.000000        39.9480           0
    3046 ARGN 3046 ARG  ARG  AR     0.000000        39.9480           0
    3047 ARGN 3047 ARG  ARG  AR     0.000000        39.9480           0
    3048 ARGN 3048 ARG  ARG  AR     0.000000        39.9480           0
    3049 ARGN 3049 ARG  ARG  AR     0.000000        39.9480           0
    3050 ARGN 3050 ARG  ARG  AR     0.000000        39.9480           0
    3051 ARGN 3051 ARG  ARG  AR     0.000000        39.9480           0
    3052 ARGN 3052 ARG  ARG  AR     0.000000        39.9480           0
    3053 ARGN 3053 ARG  ARG  AR     0.000000        39.9480           0
    3054 ARGN 3054 ARG  ARG  AR     0.000000        39.9480           0
    3055 ARGN 3055 ARG  ARG  AR     0.000000        39.9480           0
    3056 ARGN 3056 ARG  ARG  AR     0.000000        39.9480           0
    3057 ARGN 3057 ARG  ARG  AR     0.000000        39.9480           0
    3058 ARGN 3058 ARG  ARG  AR     0.000000        39.9480           0
    3059 ARGN 3059 ARG  ARG  AR     0.000000        39.9480           0
    3060 ARGN 3060 ARG  ARG  AR     0.000000        39.9480           0
    3061 ARGN 3061 ARG  ARG  AR     0.000000        39.9480           0
    3062 ARGN 3062 ARG  ARG  AR     0.000000        39.9480           0
    3063 ARGN 3063 ARG  ARG  AR     0.000000        39.9480           0
    3064 ARGN 3064 ARG  ARG  AR     0.000000        39.9480           0
    3065 ARGN 3065 ARG  ARG  AR     0.000000        39.9480           0
    3066 ARGN 3066 ARG  ARG  AR     0.000000        39.9480           0
    3067 ARGN 3067 ARG  ARG  AR     0.000000        39.9480           0
    3068 ARGN 3068 ARG  ARG  AR     0.000000        39.9480           0
    3069 ARGN 3069 ARG  ARG  AR     0.000000        39.9480           0
    3070 ARGN 3070 ARG  ARG  AR     0.000000        39.9480           0
    3071 ARGN 3071 ARG  ARG  AR     0.000000        39.9480           0
    3072 ARGN 3072 ARG  ARG  AR     0.000000        39.9480           0
    3073 ARGN 3073 ARG  ARG  AR     0.000000        39.9480           0
    3074 ARGN 3074 ARG  ARG  AR     0.000000        39.9480           0
    3075 ARGN 3075 ARG  ARG  AR     0.000000        39.9480           0
    3076 ARGN 3076 ARG  ARG  AR     0.000000        39.9480           0
    3077 ARGN 3077 ARG  ARG  AR     0.000000        39.9480           0
    3078 ARGN 3078 ARG  ARG  AR     0.000000        39.9480           0
    3079 ARGN 3079 ARG  ARG  AR     0.000000        39.9480           0
    3080 ARGN 3080 ARG  ARG  AR     0.000000        39.9480           0
    3081 ARGN 3081 ARG  ARG  AR     0.000000        39.9480           0
    3082 ARGN 3082 ARG  ARG  AR     0.000000        39.9480           0
    3083 ARGN 3083 ARG  ARG  AR     0.000000        39.9480           0
    3084 ARGN 3084 ARG  ARG  AR     0.000000        39.9480           0
    3085 ARGN 3085 ARG  ARG  AR     0.000000        39.9480           0
    3086 ARGN 3086 ARG  ARG  AR     0.000000        39.9480           0
    3087 ARGN 3087 ARG  ARG  AR     0.000000        39.9480           0
    3088 ARGN 3088 ARG  ARG  AR     0.000000        39.9480           0
    3089 ARGN 3089 ARG  ARG  AR     0.000000        39.9480           0
    3090 ARGN 3090 ARG  ARG  AR     0.000000        39.9480           0
    3091 ARGN 3091 ARG  ARG  AR     0.000000        39.9480           0
    3092 ARGN 3092 ARG  ARG  AR     0.000000        39.9480           0
    3093 ARGN 3093 ARG  ARG  AR     0.000000        39.9480           0
    3094 ARGN 3094 ARG  ARG  AR     0.000000        39.9480           0
    3095 ARGN 3095 ARG  ARG  AR     0.000000        39.9480           0
    3096 ARGN 3096 ARG  ARG  AR     0.000000        39.9480           0
    3097 ARGN 3097 ARG  ARG  AR     0.000000        39.9480           0
    3098 ARGN 3098 ARG  ARG  AR     0.000000        39.9480           0
    3099 ARGN 3099 ARG  ARG  AR     0.000000        39.9480           0
    3100 ARGN 3100 ARG  ARG  AR     0.000000        39.9480           0
    3101 ARGN 3101 ARG  ARG  AR     0.000000        39.9480           0
    3102 ARGN 3102 ARG  ARG  AR     0.000000        39.9480           0
    3103 ARGN 3103 ARG  ARG  AR     0.000000        39.9480           0
    3104 ARGN 3104 ARG  ARG  AR     0.000000        39.9480           0
    3105 ARGN 3105 ARG  ARG  AR     0.000000        39.9480           0
    3106 ARGN 3106 ARG  ARG  AR     0.000000        39.9480           0
    3107 ARGN 3107 ARG  ARG  AR     0.000000        39.9480           0
    3108 ARGN 3108 ARG  ARG  AR     0.000000        39.9480           0
    3109 ARGN 3109 ARG  ARG  AR     0.000000        39.9480           0
    3110 ARGN 3110 ARG  ARG  AR     0.000000        39.9480           0
    3111 ARGN 3111 ARG  ARG  AR     0.000000        39.9480           0
    3112 ARGN 3112 ARG  ARG  AR     0.000000        39.9480           0
    3113 ARGN 3113 ARG  ARG  AR     0.000000        39.9480           0
    3114 ARGN 3114 ARG  ARG  AR     0.000000        39.9480           0
    3115 ARGN 3115 ARG  ARG  AR     0.000000        39.9480           0
    3116 ARGN 3116 ARG  ARG  AR     0.000000        39.9480           0
    3117 ARGN 3117 ARG  ARG  AR     0.000000        39.9480           0
    3118 ARGN 3118 ARG  ARG  AR     0.000000        39.9480           0
    3119 ARGN 3119 ARG  ARG  AR     0.000000        39.9480           0
    3120 ARGN 3120 ARG  ARG  AR     0.000000        39.9480           0
    3121 ARGN 3121 ARG  ARG  AR     0.000000        39.9480           0
    3122 ARGN 3122 ARG  ARG  AR     0.000000        39.9480           0
    3123 ARGN 3123 ARG  ARG  AR     0.000000        39.9480           0
    3124 ARGN 3124 ARG  ARG  AR     0.000000        39.9480           0
    3125 ARGN 3125 ARG  ARG  AR     0.000000        39.9480           0
    3126 ARGN 3126 ARG  ARG  AR     0.000000        39.9480           0
    3127 ARGN 3127 ARG  ARG  AR     0.000000        39.9480           0
    3128 ARGN 3128 ARG  ARG  AR     0.000000        39.9480           0
    3129 ARGN 3129 ARG  ARG  AR     0.000000        39.9480           0
    3130 ARGN 3130 ARG  ARG  AR     0.000000        39.9480           0
    3131 ARGN 3131 ARG  ARG  AR     0.000000        39.9480           0
    3132 ARGN 3132 ARG  ARG  AR     0.000000        39.9480           0
    3133 ARGN 3133 ARG  ARG  AR     0.000000        39.9480           0
    3134 ARGN 3134 ARG  ARG  AR     0.000000        39.9480           0
    3135 ARGN 3135 ARG  ARG  AR     0.000000        39.9480           0
    3136 ARGN 3136 ARG  ARG  AR     0.000000        39.9480           0
    3137 ARGN 3137 ARG  ARG  AR     0.000000        39.9480           0
    3138 ARGN 3138 ARG  ARG  AR     0.000000        39.9480           0
    3139 ARGN 3139 ARG  ARG  AR     0.000000        39.9480           0
    3140 ARGN 3140 ARG  ARG  AR     0.000000        39.9480           0
    3141 ARGN 3141 ARG  ARG  AR     0.000000        39.9480           0
    3142 ARGN 3142 ARG  ARG  AR     0.000000        39.9480           0
    3143 ARGN 3143 ARG  ARG  AR     0.000000        39.9480           0
    3144 ARGN 3144 ARG  ARG  AR     0.000000        39.9480           0
    3145 ARGN 3145 ARG  ARG  AR     0.000000        39.9480           0
    3146 ARGN 3146 ARG  ARG  AR     0.000000        39.9480           0
    3147 ARGN 3147 ARG  ARG  AR     0.000000        39.9480           0
    3148 ARGN 3148 ARG  ARG  AR     0.000000        39.9480           0
    3149 ARGN 3149 ARG  ARG  AR     0.000000        39.9480           0
    3150 ARGN 3150 ARG  ARG  AR     0.000000        39.9480           0
    3151 ARGN 3151 ARG  ARG  AR     0.000000        39.9480           0
    3152 ARGN 3152 ARG  ARG  AR     0.000000        39.9480           0
    3153 ARGN 3153 ARG  ARG  AR     0.000000        39.9480           0
    3154 ARGN 3154 ARG  ARG  AR     0.000000        39.9480           0
    3155 ARGN 3155 ARG  ARG  AR     0.000000        39.9480           0
    3156 ARGN 3156 ARG  ARG  AR     0.000000        39.9480           0
    3157 ARGN 3157 ARG  ARG  AR     0.000000        39.9480           0
    3158 ARGN 3158 ARG  ARG  AR     0.000000        39.9480           0
    3159 ARGN 3159 ARG  ARG  AR     0.000000        39.9480           0
    3160 ARGN 3160 ARG  ARG  AR     0.000000        39.9480           0
    3161 ARGN 3161 ARG  ARG  AR     0.000000        39.9480           0
    3162 ARGN 3162 ARG  ARG  AR     0.000000        39.9480           0
    3163 ARGN 3163 ARG  ARG  AR     0.000000        39.9480           0
    3164 ARGN 3164 ARG  ARG  AR     0.000000        39.9480           0
    3165 ARGN 3165 ARG  ARG  AR     0.000000        39.9480           0
    3166 ARGN 3166 ARG  ARG  AR     0.000000        39.9480           0
    3167 ARGN 3167 ARG  ARG  AR     0.000000        39.9480           0
    3168 ARGN 3168 ARG  ARG  AR     0.000000        39.9480           0
    3169 ARGN 3169 ARG  ARG  AR     0.000000        39.9480           0
    3170 ARGN 3170 ARG  ARG  AR     0.000000        39.9480           0
    3171 ARGN 3171 ARG  ARG  AR     0.000000        39.9480           0
    3172 ARGN 3172 ARG  ARG  AR     0.000000        39.9480           0
    3173 ARGN 3173 ARG  ARG  AR     0.000000        39.9480           0
    3174 ARGN 3174 ARG  ARG  AR     0.000000        39.9480           0
    3175 ARGN 3175 ARG  ARG  AR     0.000000        39.9480           0
    3176 ARGN 3176 ARG  ARG  AR     0.000000        39.9480           0
    3177 ARGN 3177 ARG  ARG  AR     0.000000        39.9480           0
    3178 ARGN 3178 ARG  ARG  AR     0.000000        39.9480           0
    3179 ARGN 3179 ARG  ARG  AR     0.000000        39.9480           0
    3180 ARGN 3180 ARG  ARG  AR     0.000000        39.9480           0
    3181 ARGN 3181 ARG  ARG  AR     0.000000        39.9480           0
    3182 ARGN 3182 ARG  ARG  AR     0.000000        39.9480           0
    3183 ARGN 3183 ARG  ARG  AR     0.000000        39.9480           0
    3184 ARGN 3184 ARG  ARG  AR     0.000000        39.9480           0
    3185 ARGN 3185 ARG  ARG  AR     0.000000        39.9480           0
    3186 ARGN 3186 ARG  ARG  AR     0.000000        39.9480           0
    3187 ARGN 3187 ARG  ARG  AR     0.000000        39.9480           0
    3188 ARGN 3188 ARG  ARG  AR     0.000000        39.9480           0
    3189 ARGN 3189 ARG  ARG  AR     0.000000        39.9480           0
    3190 ARGN 3190 ARG  ARG  AR     0.000000        39.9480           0
    3191 ARGN 3191 ARG  ARG  AR     0.000000        39.9480           0
    3192 ARGN 3192 ARG  ARG  AR     0.000000        39.9480           0
    3193 ARGN 3193 ARG  ARG  AR     0.000000        39.9480           0
    3194 ARGN 3194 ARG  ARG  AR     0.000000        39.9480           0
    3195 ARGN 3195 ARG  ARG  AR     0.000000        39.9480           0
    3196 ARGN 3196 ARG  ARG  AR     0.000000        39.9480           0
    3197 ARGN 3197 ARG  ARG  AR     0.000000        39.9480           0
    3198 ARGN 3198 ARG  ARG  AR     0.000000        39.9480           0
    3199 ARGN 3199 ARG  ARG  AR     0.000000        39.9480           0
    3200 ARGN 3200 ARG  ARG  AR     0.000000        39.9480           0
    3201 ARGN 3201 ARG  ARG  AR     0.000000        39.9480           0
    3202 ARGN 3202 ARG  ARG  AR     0.000000        39.9480           0
    3203 ARGN 3203 ARG  ARG  AR     0.000000        39.9480           0
    3204 ARGN 3204 ARG  ARG  AR     0.000000        39.9480           0
    3205 ARGN 3205 ARG  ARG  AR     0.000000        39.9480           0
    3206 ARGN 3206 ARG  ARG  AR     0.000000        39.9480           0
    3207 ARGN 3207 ARG  ARG  AR     0.000000        39.9480           0
    3208 ARGN 3208 ARG  ARG  AR     0.000000        39.9480           0
    3209 ARGN 3209 ARG  ARG  AR     0.000000        39.9480           0
    3210 ARGN 3210 ARG  ARG  AR     0.000000        39.9480           0
    3211 ARGN 3211 ARG  ARG  AR     0.000000        39.9480           0
    3212 ARGN 3212 ARG  ARG  AR     0.000000        39.9480           0
    3213 ARGN 3213 ARG  ARG  AR     0.000000        39.9480           0
    3214 ARGN 3214 ARG  ARG  AR     0.000000        39.9480           0
    3215 ARGN 3215 ARG  ARG  AR     0.000000        39.9480           0
    3216 ARGN 3216 ARG  ARG  AR     0.000000        39.9480           0
    3217 ARGN 3217 ARG  ARG  AR     0.000000        39.9480           0
    3218 ARGN 3218 ARG  ARG  AR     0.000000        39.9480           0
    3219 ARGN 3219 ARG  ARG  AR     0.000000        39.9480           0
    3220 ARGN 3220 ARG  ARG  AR     0.000000        39.9480           0
    3221 ARGN 3221 ARG  ARG  AR     0.000000        39.9480           0
    3222 ARGN 3222 ARG  ARG  AR     0.000000        39.9480           0
    3223 ARGN 3223 ARG  ARG  AR     0.000000        39.9480           0
    3224 ARGN 3224 ARG  ARG  AR     0.000000        39.9480           0
    3225 ARGN 3225 ARG  ARG  AR     0.000000        39.9480           0
    3226 ARGN 3226 ARG  ARG  AR     0.000000        39.9480           0
    3227 ARGN 3227 ARG  ARG  AR     0.000000        39.9480           0
    3228 ARGN 3228 ARG  ARG  AR     0.000000        39.9480           0
    3229 ARGN 3229 ARG  ARG  AR     0.000000        39.9480           0
    3230 ARGN 3230 ARG  ARG  AR     0.000000        39.9480           0
    3231 ARGN 3231 ARG  ARG  AR     0.000000        39.9480           0
    3232 ARGN 3232 ARG  ARG  AR     0.000000        39.9480           0
    3233 ARGN 3233 ARG  ARG  AR     0.000000        39.9480           0
    3234 ARGN 3234 ARG  ARG  AR     0.000000        39.9480           0
    3235 ARGN 3235 ARG  ARG  AR     0.000000        39.9480           0
    3236 ARGN 3236 ARG  ARG  AR     0.000000        39.9480           0
    3237 ARGN 3237 ARG  ARG  AR     0.000000        39.9480           0
    3238 ARGN 3238 ARG  ARG  AR     0.000000        39.9480           0
    3239 ARGN 3239 ARG  ARG  AR     0.000000        39.9480           0
    3240 ARGN 3240 ARG  ARG  AR     0.000000        39.9480           0
    3241 ARGN 3241 ARG  ARG  AR     0.000000        39.9480           0
    3242 ARGN 3242 ARG  ARG  AR     0.000000        39.9480           0
    3243 ARGN 3243 ARG  ARG  AR     0.000000        39.9480           0
    3244 ARGN 3244 ARG  ARG  AR     0.000000        39.9480           0
    3245 ARGN 3245 ARG  ARG  AR     0.000000        39.9480           0
    3246 ARGN 3246 ARG  ARG  AR     0.000000        39.9480           0
    3247 ARGN 3247 ARG  ARG  AR     0.000000        39.9480           0
    3248 ARGN 3248 ARG  ARG  AR     0.000000        39.9480           0
    3249 ARGN 3249 ARG  ARG  AR     0.000000        39.9480           0
    3250 ARGN 3250 ARG  ARG  AR     0.000000        39.9480           0
    3251 ARGN 3251 ARG  ARG  AR     0.000000        39.9480           0
    3252 ARGN 3252 ARG  ARG  AR     0.000000        39.9480           0
    3253 ARGN 3253 ARG  ARG  AR     0.000000        39.9480           0
    3254 ARGN 3254 ARG  ARG  AR     0.000000        39.9480           0
    3255 ARGN 3255 ARG  ARG  AR     0.000000        39.9480           0
    3256 ARGN 3256 ARG  ARG  AR     0.000000        39.9480           0
    3257 ARGN 3257 ARG  ARG  AR     0.000000        39.9480           0
    3258 ARGN 3258 ARG  ARG  AR     0.000000        39.9480           0
    3259 ARGN 3259 ARG  ARG  AR     0.000000        39.9480           0
    3260 ARGN 3260 ARG  ARG  AR     0.000000        39.9480           0
    3261 ARGN 3261 ARG  ARG  AR     0.000000        39.9480           0
    3262 ARGN 3262 ARG  ARG  AR     0.000000        39.9480           0
    3263 ARGN 3263 ARG  ARG  AR     0.000000        39.9480           0
    3264 ARGN 3264 ARG  ARG  AR     0.000000        39.9480           0
    3265 ARGN 3265 ARG  ARG  AR     0.000000        39.9480           0
    3266 ARGN 3266 ARG  ARG  AR     0.000000        39.9480           0
    3267 ARGN 3267 ARG  ARG  AR     0.000000        39.9480           0
    3268 ARGN 3268 ARG  ARG  AR     0.000000        39.9480           0
    3269 ARGN 3269 ARG  ARG  AR     0.000000        39.9480           0
    3270 ARGN 3270 ARG  ARG  AR     0.000000        39.9480           0
    3271 ARGN 3271 ARG  ARG  AR     0.000000        39.9480           0
    3272 ARGN 3272 ARG  ARG  AR     0.000000        39.9480           0
    3273 ARGN 3273 ARG  ARG  AR     0.000000        39.9480           0
    3274 ARGN 3274 ARG  ARG  AR     0.000000        39.9480           0
    3275 ARGN 3275 ARG  ARG  AR     0.000000        39.9480           0
    3276 ARGN 3276 ARG  ARG  AR     0.000000        39.9480           0
    3277 ARGN 3277 ARG  ARG  AR     0.000000        39.9480           0
    3278 ARGN 3278 ARG  ARG  AR     0.000000        39.9480           0
    3279 ARGN 3279 ARG  ARG  AR     0.000000        39.9480           0
    3280 ARGN 3280 ARG  ARG  AR     0.000000        39.9480           0
    3281 ARGN 3281 ARG  ARG  AR     0.000000        39.9480           0
    3282 ARGN 3282 ARG  ARG  AR     0.000000        39.9480           0
    3283 ARGN 3283 ARG  ARG  AR     0.000000        39.9480           0
    3284 ARGN 3284 ARG  ARG  AR     0.000000        39.9480           0
    3285 ARGN 3285 ARG  ARG  AR     0.000000        39.9480           0
    3286 ARGN 3286 ARG  ARG  AR     0.000000        39.9480           0
    3287 ARGN 3287 ARG  ARG  AR     0.000000        39.9480           0
    3288 ARGN 3288 ARG  ARG  AR     0.000000        39.9480           0
    3289 ARGN 3289 ARG  ARG  AR     0.000000        39.9480           0
    3290 ARGN 3290 ARG  ARG  AR     0.000000        39.9480           0
    3291 ARGN 3291 ARG  ARG  AR     0.000000        39.9480           0
    3292 ARGN 3292 ARG  ARG  AR     0.000000        39.9480           0
    3293 ARGN 3293 ARG  ARG  AR     0.000000        39.9480           0
    3294 ARGN 3294 ARG  ARG  AR     0.000000        39.9480           0
    3295 ARGN 3295 ARG  ARG  AR     0.000000        39.9480           0
    3296 ARGN 3296 ARG  ARG  AR     0.000000        39.9480           0
    3297 ARGN 3297 ARG  ARG  AR     0.000000        39.9480           0
    3298 ARGN 3298 ARG  ARG  AR     0.000000        39.9480           0
    3299 ARGN 3299 ARG  ARG  AR     0.000000        39.9480           0
    3300 ARGN 3300 ARG  ARG  AR     0.000000        39.9480           0
    3301 ARGN 3301 ARG  ARG  AR     0.000000        39.9480           0
    3302 ARGN 3302 ARG  ARG  AR     0.000000        39.9480           0
    3303 ARGN 3303 ARG  ARG  AR     0.000000        39.9480           0
    3304 ARGN 3304 ARG  ARG  AR     0.000000        39.9480           0
    3305 ARGN 3305 ARG  ARG  AR     0.000000        39.9480           0
    3306 ARGN 3306 ARG  ARG  AR     0.000000        39.9480           0
    3307 ARGN 3307 ARG  ARG  AR     0.000000        39.9480           0
    3308 ARGN 3308 ARG  ARG  AR     0.000000        39.9480           0
    3309 ARGN 3309 ARG  ARG  AR     0.000000        39.9480           0
    3310 ARGN 3310 ARG  ARG  AR     0.000000        39.9480           0
    3311 ARGN 3311 ARG  ARG  AR     0.000000        39.9480           0
    3312 ARGN 3312 ARG  ARG  AR     0.000000        39.9480           0
    3313 ARGN 3313 ARG  ARG  AR     0.000000        39.9480           0
    3314 ARGN 3314 ARG  ARG  AR     0.000000        39.9480           0
    3315 ARGN 3315 ARG  ARG  AR     0.000000        39.9480           0
    3316 ARGN 3316 ARG  ARG  AR     0.000000        39.9480           0
    3317 ARGN 3317 ARG  ARG  AR     0.000000        39.9480           0
    3318 ARGN 3318 ARG  ARG  AR     0.000000        39.9480           0
    3319 ARGN 3319 ARG  ARG  AR     0.000000        39.9480           0
    3320 ARGN 3320 ARG  ARG  AR     0.000000        39.9480           0
    3321 ARGN 3321 ARG  ARG  AR     0.000000        39.9480           0
    3322 ARGN 3322 ARG  ARG  AR     0.000000        39.9480           0
    3323 ARGN 3323 ARG  ARG  AR     0.000000        39.9480           0
    3324 ARGN 3324 ARG  ARG  AR     0.000000        39.9480           0
    3325 ARGN 3325 ARG  ARG  AR     0.000000        39.9480           0
    3326 ARGN 3326 ARG  ARG  AR     0.000000        39.9480           0
    3327 ARGN 3327 ARG  ARG  AR     0.000000        39.9480           0
    3328 ARGN 3328 ARG  ARG  AR     0.000000        39.9480           0
    3329 ARGN 3329 ARG  ARG  AR     0.000000        39.9480           0
    3330 ARGN 3330 ARG  ARG  AR     0.000000        39.9480           0
    3331 ARGN 3331 ARG  ARG  AR     0.000000        39.9480           0
    3332 ARGN 3332 ARG  ARG  AR     0.000000        39.9480           0
    3333 ARGN 3333 ARG  ARG  AR     0.000000        39.9480           0
    3334 ARGN 3334 ARG  ARG  AR     0.000000        39.9480           0
    3335 ARGN 3335 ARG  ARG  AR     0.000000        39.9480           0
    3336 ARGN 3336 ARG  ARG  AR     0.000000        39.9480           0
    3337 ARGN 3337 ARG  ARG  AR     0.000000        39.9480           0
    3338 ARGN 3338 ARG  ARG  AR     0.000000        39.9480           0
    3339 ARGN 3339 ARG  ARG  AR     0.000000        39.9480           0
    3340 ARGN 3340 ARG  ARG  AR     0.000000        39.9480           0
    3341 ARGN 3341 ARG  ARG  AR     0.000000        39.9480           0
    3342 ARGN 3342 ARG  ARG  AR     0.000000        39.9480           0
    3343 ARGN 3343 ARG  ARG  AR     0.000000        39.9480           0
    3344 ARGN 3344 ARG  ARG  AR     0.000000        39.9480           0
    3345 ARGN 3345 ARG  ARG  AR     0.000000        39.9480           0
    3346 ARGN 3346 ARG  ARG  AR     0.000000        39.9480           0
    3347 ARGN 3347 ARG  ARG  AR     0.000000        39.9480           0
    3348 ARGN 3348 ARG  ARG  AR     0.000000        39.9480           0
    3349 ARGN 3349 ARG  ARG  AR     0.000000        39.9480           0
    3350 ARGN 3350 ARG  ARG  AR     0.000000        39.9480           0
    3351 ARGN 3351 ARG  ARG  AR     0.000000        39.9480           0
    3352 ARGN 3352 ARG  ARG  AR     0.000000        39.9480           0
    3353 ARGN 3353 ARG  ARG  AR     0.000000        39.9480           0
    3354 ARGN 3354 ARG  ARG  AR     0.000000        39.9480           0
    3355 ARGN 3355 ARG  ARG  AR     0.000000        39.9480           0
    3356 ARGN 3356 ARG  ARG  AR     0.000000        39.9480           0
    3357 ARGN 3357 ARG  ARG  AR     0.000000        39.9480           0
    3358 ARGN 3358 ARG  ARG  AR     0.000000        39.9480           0
    3359 ARGN 3359 ARG  ARG  AR     0.000000        39.9480           0
    3360 ARGN 3360 ARG  ARG  AR     0.000000        39.9480           0
    3361 ARGN 3361 ARG  ARG  AR     0.000000        39.9480           0
    3362 ARGN 3362 ARG  ARG  AR     0.000000        39.9480           0
    3363 ARGN 3363 ARG  ARG  AR     0.000000        39.9480           0
    3364 ARGN 3364 ARG  ARG  AR     0.000000        39.9480           0
    3365 ARGN 3365 ARG  ARG  AR     0.000000        39.9480           0
    3366 ARGN 3366 ARG  ARG  AR     0.000000        39.9480           0
    3367 ARGN 3367 ARG  ARG  AR     0.000000        39.9480           0
    3368 ARGN 3368 ARG  ARG  AR     0.000000        39.9480           0
    3369 ARGN 3369 ARG  ARG  AR     0.000000        39.9480           0
    3370 ARGN 3370 ARG  ARG  AR     0.000000        39.9480           0
    3371 ARGN 3371 ARG  ARG  AR     0.000000        39.9480           0
    3372 ARGN 3372 ARG  ARG  AR     0.000000        39.9480           0
    3373 ARGN 3373 ARG  ARG  AR     0.000000        39.9480           0
    3374 ARGN 3374 ARG  ARG  AR     0.000000        39.9480           0
    3375 ARGN 3375 ARG  ARG  AR     0.000000        39.9480           0
    3376 ARGN 3376 ARG  ARG  AR     0.000000        39.9480           0
    3377 ARGN 3377 ARG  ARG  AR     0.000000        39.9480           0
    3378 ARGN 3378 ARG  ARG  AR     0.000000        39.9480           0
    3379 ARGN 3379 ARG  ARG  AR     0.000000        39.9480           0
    3380 ARGN 3380 ARG  ARG  AR     0.000000        39.9480           0
    3381 ARGN 3381 ARG  ARG  AR     0.000000        39.9480           0
    3382 ARGN 3382 ARG  ARG  AR     0.000000        39.9480           0
    3383 ARGN 3383 ARG  ARG  AR     0.000000        39.9480           0
    3384 ARGN 3384 ARG  ARG  AR     0.000000        39.9480           0
    3385 ARGN 3385 ARG  ARG  AR     0.000000        39.9480           0
    3386 ARGN 3386 ARG  ARG  AR     0.000000        39.9480           0
    3387 ARGN 3387 ARG  ARG  AR     0.000000        39.9480           0
    3388 ARGN 3388 ARG  ARG  AR     0.000000        39.9480           0
    3389 ARGN 3389 ARG  ARG  AR     0.000000        39.9480           0
    3390 ARGN 3390 ARG  ARG  AR     0.000000        39.9480           0
    3391 ARGN 3391 ARG  ARG  AR     0.000000        39.9480           0
    3392 ARGN 3392 ARG  ARG  AR     0.000000        39.9480           0
    3393 ARGN 3393 ARG  ARG  AR     0.000000        39.9480           0
    3394 ARGN 3394 ARG  ARG  AR     0.000000        39.9480           0
    3395 ARGN 3395 ARG  ARG  AR     0.000000        39.9480           0
    3396 ARGN 3396 ARG  ARG  AR     0.000000        39.9480           0
    3397 ARGN 3397 ARG  ARG  AR     0.000000        39.9480           0
    3398 ARGN 3398 ARG  ARG  AR     0.000000        39.9480           0
    3399 ARGN 3399 ARG  ARG  AR     0.000000        39.9480           0
    3400 ARGN 3400 ARG  ARG  AR     0.000000        39.9480           0
    3401 ARGN 3401 ARG  ARG  AR     0.000000        39.9480           0
    3402 ARGN 3402 ARG  ARG  AR     0.000000        39.9480           0
    3403 ARGN 3403 ARG  ARG  AR     0.000000        39.9480           0
    3404 ARGN 3404 ARG  ARG  AR     0.000000        39.9480           0
    3405 ARGN 3405 ARG  ARG  AR     0.000000        39.9480           0
    3406 ARGN 3406 ARG  ARG  AR     0.000000        39.9480           0
    3407 ARGN 3407 ARG  ARG  AR     0.000000        39.9480           0
    3408 ARGN 3408 ARG  ARG  AR     0.000000        39.9480           0
    3409 ARGN 3409 ARG  ARG  AR     0.000000        39.9480           0
    3410 ARGN 3410 ARG  ARG  AR     0.000000        39.9480           0
    3411 ARGN 3411 ARG  ARG  AR     0.000000        39.9480           0
    3412 ARGN 3412 ARG  ARG  AR     0.000000        39.9480           0
    3413 ARGN 3413 ARG  ARG  AR     0.000000        39.9480           0
    3414 ARGN 3414 ARG  ARG  AR     0.000000        39.9480           0
    3415 ARGN 3415 ARG  ARG  AR     0.000000        39.9480           0
    3416 ARGN 3416 ARG  ARG  AR     0.000000        39.9480           0
    3417 ARGN 3417 ARG  ARG  AR     0.000000        39.9480           0
    3418 ARGN 3418 ARG  ARG  AR     0.000000        39.9480           0
    3419 ARGN 3419 ARG  ARG  AR     0.000000        39.9480           0
    3420 ARGN 3420 ARG  ARG  AR     0.000000        39.9480           0
    3421 ARGN 3421 ARG  ARG  AR     0.000000        39.9480           0
    3422 ARGN 3422 ARG  ARG  AR     0.000000        39.9480           0
    3423 ARGN 3423 ARG  ARG  AR     0.000000        39.9480           0
    3424 ARGN 3424 ARG  ARG  AR     0.000000        39.9480           0
    3425 ARGN 3425 ARG  ARG  AR     0.000000        39.9480           0
    3426 ARGN 3426 ARG  ARG  AR     0.000000        39.9480           0
    3427 ARGN 3427 ARG  ARG  AR     0.000000        39.9480           0
    3428 ARGN 3428 ARG  ARG  AR     0.000000        39.9480           0
    3429 ARGN 3429 ARG  ARG  AR     0.000000        39.9480           0
    3430 ARGN 3430 ARG  ARG  AR     0.000000        39.9480           0
    3431 ARGN 3431 ARG  ARG  AR     0.000000        39.9480           0
    3432 ARGN 3432 ARG  ARG  AR     0.000000        39.9480           0
    3433 ARGN 3433 ARG  ARG  AR     0.000000        39.9480           0
    3434 ARGN 3434 ARG  ARG  AR     0.000000        39.9480           0
    3435 ARGN 3435 ARG  ARG  AR     0.000000        39.9480           0
    3436 ARGN 3436 ARG  ARG  AR     0.000000        39.9480           0
    3437 ARGN 3437 ARG  ARG  AR     0.000000        39.9480           0
    3438 ARGN 3438 ARG  ARG  AR     0.000000        39.9480           0
    3439 ARGN 3439 ARG  ARG  AR     0.000000        39.9480           0
    3440 ARGN 3440 ARG  ARG  AR     0.000000        39.9480           0
    3441 ARGN 3441 ARG  ARG  AR     0.000000        39.9480           0
    3442 ARGN 3442 ARG  ARG  AR     0.000000        39.9480           0
    3443 ARGN 3443 ARG  ARG  AR     0.000000        39.9480           0
    3444 ARGN 3444 ARG  ARG  AR     0.000000        39.9480           0
    3445 ARGN 3445 ARG  ARG  AR     0.000000        39.9480           0
    3446 ARGN 3446 ARG  ARG  AR     0.000000        39.9480           0
    3447 ARGN 3447 ARG  ARG  AR     0.000000        39.9480           0
    3448 ARGN 3448 ARG  ARG  AR     0.000000        39.9480           0
    3449 ARGN 3449 ARG  ARG  AR     0.000000        39.9480           0
    3450 ARGN 3450 ARG  ARG  AR     0.000000        39.9480           0
    3451 ARGN 3451 ARG  ARG  AR     0.000000        39.9480           0
    3452 ARGN 3452 ARG  ARG  AR     0.000000        39.9480           0
    3453 ARGN 3453 ARG  ARG  AR     0.000000        39.9480           0
    3454 ARGN 3454 ARG  ARG  AR     0.000000        39.9480           0
    3455 ARGN 3455 ARG  ARG  AR     0.000000        39.9480           0
    3456 ARGN 3456 ARG  ARG  AR     0.000000        39.9480           0
    3457 ARGN 3457 ARG  ARG  AR     0.000000        39.9480           0
    3458 ARGN 3458 ARG  ARG  AR     0.000000        39.9480           0
    3459 ARGN 3459 ARG  ARG  AR     0.000000        39.9480           0
    3460 ARGN 3460 ARG  ARG  AR     0.000000        39.9480           0
    3461 ARGN 3461 ARG  ARG  AR     0.000000        39.9480           0
    3462 ARGN 3462 ARG  ARG  AR     0.000000        39.9480           0
    3463 ARGN 3463 ARG  ARG  AR     0.000000        39.9480           0
    3464 ARGN 3464 ARG  ARG  AR     0.000000        39.9480           0
    3465 ARGN 3465 ARG  ARG  AR     0.000000        39.9480           0
    3466 ARGN 3466 ARG  ARG  AR     0.000000        39.9480           0
    3467 ARGN 3467 ARG  ARG  AR     0.000000        39.9480           0
    3468 ARGN 3468 ARG  ARG  AR     0.000000        39.9480           0
    3469 ARGN 3469 ARG  ARG  AR     0.000000        39.9480           0
    3470 ARGN 3470 ARG  ARG  AR     0.000000        39.9480           0
    3471 ARGN 3471 ARG  ARG  AR     0.000000        39.9480           0
    3472 ARGN 3472 ARG  ARG  AR     0.000000        39.9480           0
    3473 ARGN 3473 ARG  ARG  AR     0.000000        39.9480           0
    3474 ARGN 3474 ARG  ARG  AR     0.000000        39.9480           0
    3475 ARGN 3475 ARG  ARG  AR     0.000000        39.9480           0
    3476 ARGN 3476 ARG  ARG  AR     0.000000        39.9480           0
    3477 ARGN 3477 ARG  ARG  AR     0.000000        39.9480           0
    3478 ARGN 3478 ARG  ARG  AR     0.000000        39.9480           0
    3479 ARGN 3479 ARG  ARG  AR     0.000000        39.9480           0
    3480 ARGN 3480 ARG  ARG  AR     0.000000        39.9480           0
    3481 ARGN 3481 ARG  ARG  AR     0.000000        39.9480           0
    3482 ARGN 3482 ARG  ARG  AR     0.000000        39.9480           0
    3483 ARGN 3483 ARG  ARG  AR     0.000000        39.9480           0
    3484 ARGN 3484 ARG  ARG  AR     0.000000        39.9480           0
    3485 ARGN 3485 ARG  ARG  AR     0.000000        39.9480           0
    3486 ARGN 3486 ARG  ARG  AR     0.000000        39.9480           0
    3487 ARGN 3487 ARG  ARG  AR     0.000000        39.9480           0
    3488 ARGN 3488 ARG  ARG  AR     0.000000        39.9480           0
    3489 ARGN 3489 ARG  ARG  AR     0.000000        39.9480           0
    3490 ARGN 3490 ARG  ARG  AR     0.000000        39.9480           0
    3491 ARGN 3491 ARG  ARG  AR     0.000000        39.9480           0
    3492 ARGN 3492 ARG  ARG  AR     0.000000        39.9480           0
    3493 ARGN 3493 ARG  ARG  AR     0.000000        39.9480           0
    3494 ARGN 3494 ARG  ARG  AR     0.000000        39.9480           0
    3495 ARGN 3495 ARG  ARG  AR     0.000000        39.9480           0
    3496 ARGN 3496 ARG  ARG  AR     0.000000        39.9480           0
    3497 ARGN 3497 ARG  ARG  AR     0.000000        39.9480           0
    3498 ARGN 3498 ARG  ARG  AR     0.000000        39.9480           0
    3499 ARGN 3499 ARG  ARG  AR     0.000000        39.9480           0
    3500 ARGN 3500 ARG  ARG  AR     0.000000        39.9480           0
    3501 ARGN 3501 ARG  ARG  AR     0.000000        39.9480           0
    3502 ARGN 3502 ARG  ARG  AR     0.000000        39.9480           0
    3503 ARGN 3503 ARG  ARG  AR     0.000000        39.9480           0
    3504 ARGN 3504 ARG  ARG  AR     0.000000        39.9480           0
    3505 ARGN 3505 ARG  ARG  AR     0.000000        39.9480           0
    3506 ARGN 3506 ARG  ARG  AR     0.000000        39.9480           0
    3507 ARGN 3507 ARG  ARG  AR     0.000000        39.9480           0
    3508 ARGN 3508 ARG  ARG  AR     0.000000        39.9480           0
    3509 ARGN 3509 ARG  ARG  AR     0.000000        39.9480           0
    3510 ARGN 3510 ARG  ARG  AR     0.000000        39.9480           0
    3511 ARGN 3511 ARG  ARG  AR     0.000000        39.9480           0
    3512 ARGN 3512 ARG  ARG  AR     0.000000        39.9480           0
    3513 ARGN 3513 ARG  ARG  AR     0.000000        39.9480           0
    3514 ARGN 3514 ARG  ARG  AR     0.000000        39.9480           0
    3515 ARGN 3515 ARG  ARG  AR     0.000000        39.9480           0
    3516 ARGN 3516 ARG  ARG  AR     0.000000        39.9480           0
    3517 ARGN 3517 ARG  ARG  AR     0.000000        39.9480           0
    3518 ARGN 3518 ARG  ARG  AR     0.000000        39.9480           0
    3519 ARGN 3519 ARG  ARG  AR     0.000000        39.9480           0
    3520 ARGN 3520 ARG  ARG  AR     0.000000        39.9480           0
    3521 ARGN 3521 ARG  ARG  AR     0.000000        39.9480           0
    3522 ARGN 3522 ARG  ARG  AR     0.000000        39.9480           0
    3523 ARGN 3523 ARG  ARG  AR     0.000000        39.9480           0
    3524 ARGN 3524 ARG  ARG  AR     0.000000        39.9480           0
    3525 ARGN 3525 ARG  ARG  AR     0.000000        39.9480           0
    3526 ARGN 3526 ARG  ARG  AR     0.000000        39.9480           0
    3527 ARGN 3527 ARG  ARG  AR     0.000000        39.9480           0
    3528 ARGN 3528 ARG  ARG  AR     0.000000        39.9480           0
    3529 ARGN 3529 ARG  ARG  AR     0.000000        39.9480           0
    3530 ARGN 3530 ARG  ARG  AR     0.000000        39.9480           0
    3531 ARGN 3531 ARG  ARG  AR     0.000000        39.9480           0
    3532 ARGN 3532 ARG  ARG  AR     0.000000        39.9480           0
    3533 ARGN 3533 ARG  ARG  AR     0.000000        39.9480           0
    3534 ARGN 3534 ARG  ARG  AR     0.000000        39.9480           0
    3535 ARGN 3535 ARG  ARG  AR     0.000000        39.9480           0
    3536 ARGN 3536 ARG  ARG  AR     0.000000        39.9480           0
    3537 ARGN 3537 ARG  ARG  AR     0.000000        39.9480           0
    3538 ARGN 3538 ARG  ARG  AR     0.000000        39.9480           0
    3539 ARGN 3539 ARG  ARG  AR     0.000000        39.9480           0
    3540 ARGN 3540 ARG  ARG  AR     0.000000        39.9480           0
    3541 ARGN 3541 ARG  ARG  AR     0.000000        39.9480           0
    3542 ARGN 3542 ARG  ARG  AR     0.000000        39.9480           0
    3543 ARGN 3543 ARG  ARG  AR     0.000000        39.9480           0
    3544 ARGN 3544 ARG  ARG  AR     0.000000        39.9480           0
    3545 ARGN 3545 ARG  ARG  AR     0.000000        39.9480           0
    3546 ARGN 3546 ARG  ARG  AR     0.000000        39.9480           0
    3547 ARGN 3547 ARG  ARG  AR     0.000000        39.9480           0
    3548 ARGN 3548 ARG  ARG  AR     0.000000        39.9480           0
    3549 ARGN 3549 ARG  ARG  AR     0.000000        39.9480           0
    3550 ARGN 3550 ARG  ARG  AR     0.000000        39.9480           0
    3551 ARGN 3551 ARG  ARG  AR     0.000000        39.9480           0
    3552 ARGN 3552 ARG  ARG  AR     0.000000        39.9480           0
    3553 ARGN 3553 ARG  ARG  AR     0.000000        39.9480           0
    3554 ARGN 3554 ARG  ARG  AR     0.000000        39.9480           0
    3555 ARGN 3555 ARG  ARG  AR     0.000000        39.9480           0
    3556 ARGN 3556 ARG  ARG  AR     0.000000        39.9480           0
    3557 ARGN 3557 ARG  ARG  AR     0.000000        39.9480           0
    3558 ARGN 3558 ARG  ARG  AR     0.000000        39.9480           0
    3559 ARGN 3559 ARG  ARG  AR     0.000000        39.9480           0
    3560 ARGN 3560 ARG  ARG  AR     0.000000        39.9480           0
    3561 ARGN 3561 ARG  ARG  AR     0.000000        39.9480           0
    3562 ARGN 3562 ARG  ARG  AR     0.000000        39.9480           0
    3563 ARGN 3563 ARG  ARG  AR     0.000000        39.9480           0
    3564 ARGN 3564 ARG  ARG  AR     0.000000        39.9480           0
    3565 ARGN 3565 ARG  ARG  AR     0.000000        39.9480           0
    3566 ARGN 3566 ARG  ARG  AR     0.000000        39.9480           0
    3567 ARGN 3567 ARG  ARG  AR     0.000000        39.9480           0
    3568 ARGN 3568 ARG  ARG  AR     0.000000        39.9480           0
    3569 ARGN 3569 ARG  ARG  AR     0.000000        39.9480           0
    3570 ARGN 3570 ARG  ARG  AR     0.000000        39.9480           0
    3571 ARGN 3571 ARG  ARG  AR     0.000000        39.9480           0
    3572 ARGN 3572 ARG  ARG  AR     0.000000        39.9480           0
    3573 ARGN 3573 ARG  ARG  AR     0.000000        39.9480           0
    3574 ARGN 3574 ARG  ARG  AR     0.000000        39.9480           0
    3575 ARGN 3575 ARG  ARG  AR     0.000000        39.9480           0
    3576 ARGN 3576 ARG  ARG  AR     0.000000        39.9480           0
    3577 ARGN 3577 ARG  ARG  AR     0.000000        39.9480           0
    3578 ARGN 3578 ARG  ARG  AR     0.000000        39.9480           0
    3579 ARGN 3579 ARG  ARG  AR     0.000000        39.9480           0
    3580 ARGN 3580 ARG  ARG  AR     0.000000        39.9480           0
    3581 ARGN 3581 ARG  ARG  AR     0.000000        39.9480           0
    3582 ARGN 3582 ARG  ARG  AR     0.000000        39.9480           0
    3583 ARGN 3583 ARG  ARG  AR     0.000000        39.9480           0
    3584 ARGN 3584 ARG  ARG  AR     0.000000        39.9480           0
    3585 ARGN 3585 ARG  ARG  AR     0.000000        39.9480           0
    3586 ARGN 3586 ARG  ARG  AR     0.000000        39.9480           0
    3587 ARGN 3587 ARG  ARG  AR     0.000000        39.9480           0
    3588 ARGN 3588 ARG  ARG  AR     0.000000        39.9480           0
    3589 ARGN 3589 ARG  ARG  AR     0.000000        39.9480           0
    3590 ARGN 3590 ARG  ARG  AR     0.000000        39.9480           0
    3591 ARGN 3591 ARG  ARG  AR     0.000000        39.9480           0
    3592 ARGN 3592 ARG  ARG  AR     0.000000        39.9480           0
    3593 ARGN 3593 ARG  ARG  AR     0.000000        39.9480           0
    3594 ARGN 3594 ARG  ARG  AR     0.000000        39.9480           0
    3595 ARGN 3595 ARG  ARG  AR     0.000000        39.9480           0
    3596 ARGN 3596 ARG  ARG  AR     0.000000        39.9480           0
    3597 ARGN 3597 ARG  ARG  AR     0.000000        39.9480           0
    3598 ARGN 3598 ARG  ARG  AR     0.000000        39.9480           0
    3599 ARGN 3599 ARG  ARG  AR     0.000000        39.9480           0
    3600 ARGN 3600 ARG  ARG  AR     0.000000        39.9480           0
    3601 ARGN 3601 ARG  ARG  AR     0.000000        39.9480           0
    3602 ARGN 3602 ARG  ARG  AR     0.000000        39.9480           0
    3603 ARGN 3603 ARG  ARG  AR     0.000000        39.9480           0
    3604 ARGN 3604 ARG  ARG  AR     0.000000        39.9480           0
    3605 ARGN 3605 ARG  ARG  AR     0.000000        39.9480           0
    3606 ARGN 3606 ARG  ARG  AR     0.000000        39.9480           0
    3607 ARGN 3607 ARG  ARG  AR     0.000000        39.9480           0
    3608 ARGN 3608 ARG  ARG  AR     0.000000        39.9480           0
    3609 ARGN 3609 ARG  ARG  AR     0.000000        39.9480           0
    3610 ARGN 3610 ARG  ARG  AR     0.000000        39.9480           0
    3611 ARGN 3611 ARG  ARG  AR     0.000000        39.9480           0
    3612 ARGN 3612 ARG  ARG  AR     0.000000        39.9480           0
    3613 ARGN 3613 ARG  ARG  AR     0.000000        39.9480           0
    3614 ARGN 3614 ARG  ARG  AR     0.000000        39.9480           0
    3615 ARGN 3615 ARG  ARG  AR     0.000000        39.9480           0
    3616 ARGN 3616 ARG  ARG  AR     0.000000        39.9480           0
    3617 ARGN 3617 ARG  ARG  AR     0.000000        39.9480           0
    3618 ARGN 3618 ARG  ARG  AR     0.000000        39.9480           0
    3619 ARGN 3619 ARG  ARG  AR     0.000000        39.9480           0
    3620 ARGN 3620 ARG  ARG  AR     0.000000        39.9480           0
    3621 ARGN 3621 ARG  ARG  AR     0.000000        39.9480           0
    3622 ARGN 3622 ARG  ARG  AR     0.000000        39.9480           0
    3623 ARGN 3623 ARG  ARG  AR     0.000000        39.9480           0
    3624 ARGN 3624 ARG  ARG  AR     0.000000        39.9480           0
    3625 ARGN 3625 ARG  ARG  AR     0.000000        39.9480           0
    3626 ARGN 3626 ARG  ARG  AR     0.000000        39.9480           0
    3627 ARGN 3627 ARG  ARG  AR     0.000000        39.9480           0
    3628 ARGN 3628 ARG  ARG  AR     0.000000        39.9480           0
    3629 ARGN 3629 ARG  ARG  AR     0.000000        39.9480           0
    3630 ARGN 3630 ARG  ARG  AR     0.000000        39.9480           0
    3631 ARGN 3631 ARG  ARG  AR     0.000000        39.9480           0
    3632 ARGN 3632 ARG  ARG  AR     0.000000        39.9480           0
    3633 ARGN 3633 ARG  ARG  AR     0.000000        39.9480           0
    3634 ARGN 3634 ARG  ARG  AR     0.000000        39.9480           0
    3635 ARGN 3635 ARG  ARG  AR     0.000000        39.9480           0
    3636 ARGN 3636 ARG  ARG  AR     0.000000        39.9480           0
    3637 ARGN 3637 ARG  ARG  AR     0.000000        39.9480           0
    3638 ARGN 3638 ARG  ARG  AR     0.000000        39.9480           0
    3639 ARGN 3639 ARG  ARG  AR     0.000000        39.9480           0
    3640 ARGN 3640 ARG  ARG  AR     0.000000        39.9480           0
    3641 ARGN 3641 ARG  ARG  AR     0.000000        39.9480           0
    3642 ARGN 3642 ARG  ARG  AR     0.000000        39.9480           0
    3643 ARGN 3643 ARG  ARG  AR     0.000000        39.9480           0
    3644 ARGN 3644 ARG  ARG  AR     0.000000        39.9480           0
    3645 ARGN 3645 ARG  ARG  AR     0.000000        39.9480           0
    3646 ARGN 3646 ARG  ARG  AR     0.000000        39.9480           0
    3647 ARGN 3647 ARG  ARG  AR     0.000000        39.9480           0
    3648 ARGN 3648 ARG  ARG  AR     0.000000        39.9480           0
    3649 ARGN 3649 ARG  ARG  AR     0.000000        39.9480           0
    3650 ARGN 3650 ARG  ARG  AR     0.000000        39.9480           0
    3651 ARGN 3651 ARG  ARG  AR     0.000000        39.9480           0
    3652 ARGN 3652 ARG  ARG  AR     0.000000        39.9480           0
    3653 ARGN 3653 ARG  ARG  AR     0.000000        39.9480           0
    3654 ARGN 3654 ARG  ARG  AR     0.000000        39.9480           0
    3655 ARGN 3655 ARG  ARG  AR     0.000000        39.9480           0
    3656 ARGN 3656 ARG  ARG  AR     0.000000        39.9480           0
    3657 ARGN 3657 ARG  ARG  AR     0.000000        39.9480           0
    3658 ARGN 3658 ARG  ARG  AR     0.000000        39.9480           0
    3659 ARGN 3659 ARG  ARG  AR     0.000000        39.9480           0
    3660 ARGN 3660 ARG  ARG  AR     0.000000        39.9480           0
    3661 ARGN 3661 ARG  ARG  AR     0.000000        39.9480           0
    3662 ARGN 3662 ARG  ARG  AR     0.000000        39.9480           0
    3663 ARGN 3663 ARG  ARG  AR     0.000000        39.9480           0
    3664 ARGN 3664 ARG  ARG  AR     0.000000        39.9480           0
    3665 ARGN 3665 ARG  ARG  AR     0.000000        39.9480           0
    3666 ARGN 3666 ARG  ARG  AR     0.000000        39.9480           0
    3667 ARGN 3667 ARG  ARG  AR     0.000000        39.9480           0
    3668 ARGN 3668 ARG  ARG  AR     0.000000        39.9480           0
    3669 ARGN 3669 ARG  ARG  AR     0.000000        39.9480           0
    3670 ARGN 3670 ARG  ARG  AR     0.000000        39.9480           0
    3671 ARGN 3671 ARG  ARG  AR     0.000000        39.9480           0
    3672 ARGN 3672 ARG  ARG  AR     0.000000        39.9480           0
    3673 ARGN 3673 ARG  ARG  AR     0.000000        39.9480           0
    3674 ARGN 3674 ARG  ARG  AR     0.000000        39.9480           0
    3675 ARGN 3675 ARG  ARG  AR     0.000000        39.9480           0
    3676 ARGN 3676 ARG  ARG  AR     0.000000        39.9480           0
    3677 ARGN 3677 ARG  ARG  AR     0.000000        39.9480           0
    3678 ARGN 3678 ARG  ARG  AR     0.000000        39.9480           0
    3679 ARGN 3679 ARG  ARG  AR     0.000000        39.9480           0
    3680 ARGN 3680 ARG  ARG  AR     0.000000        39.9480           0
    3681 ARGN 3681 ARG  ARG  AR     0.000000        39.9480           0
    3682 ARGN 3682 ARG  ARG  AR     0.000000        39.9480           0
    3683 ARGN 3683 ARG  ARG  AR     0.000000        39.9480           0
    3684 ARGN 3684 ARG  ARG  AR     0.000000        39.9480           0
    3685 ARGN 3685 ARG  ARG  AR     0.000000        39.9480           0
    3686 ARGN 3686 ARG  ARG  AR     0.000000        39.9480           0
    3687 ARGN 3687 ARG  ARG  AR     0.000000        39.9480           0
    3688 ARGN 3688 ARG  ARG  AR     0.000000        39.9480           0
    3689 ARGN 3689 ARG  ARG  AR     0.000000        39.9480           0
    3690 ARGN 3690 ARG  ARG  AR     0.000000        39.9480           0
    3691 ARGN 3691 ARG  ARG  AR     0.000000        39.9480           0
    3692 ARGN 3692 ARG  ARG  AR     0.000000        39.9480           0
    3693 ARGN 3693 ARG  ARG  AR     0.000000        39.9480           0
    3694 ARGN 3694 ARG  ARG  AR     0.000000        39.9480           0
    3695 ARGN 3695 ARG  ARG  AR     0.000000        39.9480           0
    3696 ARGN 3696 ARG  ARG  AR     0.000000        39.9480           0
    3697 ARGN 3697 ARG  ARG  AR     0.000000        39.9480           0
    3698 ARGN 3698 ARG  ARG  AR     0.000000        39.9480           0
    3699 ARGN 3699 ARG  ARG  AR     0.000000        39.9480           0
    3700 ARGN 3700 ARG  ARG  AR     0.000000        39.9480           0
    3701 ARGN 3701 ARG  ARG  AR     0.000000        39.9480           0
    3702 ARGN 3702 ARG  ARG  AR     0.000000        39.9480           0
    3703 ARGN 3703 ARG  ARG  AR     0.000000        39.9480           0
    3704 ARGN 3704 ARG  ARG  AR     0.000000        39.9480           0
    3705 ARGN 3705 ARG  ARG  AR     0.000000        39.9480           0
    3706 ARGN 3706 ARG  ARG  AR     0.000000        39.9480           0
    3707 ARGN 3707 ARG  ARG  AR     0.000000        39.9480           0
    3708 ARGN 3708 ARG  ARG  AR     0.000000        39.9480           0
    3709 ARGN 3709 ARG  ARG  AR     0.000000        39.9480           0
    3710 ARGN 3710 ARG  ARG  AR     0.000000        39.9480           0
    3711 ARGN 3711 ARG  ARG  AR     0.000000        39.9480           0
    3712 ARGN 3712 ARG  ARG  AR     0.000000        39.9480           0
    3713 ARGN 3713 ARG  ARG  AR     0.000000        39.9480           0
    3714 ARGN 3714 ARG  ARG  AR     0.000000        39.9480           0
    3715 ARGN 3715 ARG  ARG  AR     0.000000        39.9480           0
    3716 ARGN 3716 ARG  ARG  AR     0.000000        39.9480           0
    3717 ARGN 3717 ARG  ARG  AR     0.000000        39.9480           0
    3718 ARGN 3718 ARG  ARG  AR     0.000000        39.9480           0
    3719 ARGN 3719 ARG  ARG  AR     0.000000        39.9480           0
    3720 ARGN 3720 ARG  ARG  AR     0.000000        39.9480           0
    3721 ARGN 3721 ARG  ARG  AR     0.000000        39.9480           0
    3722 ARGN 3722 ARG  ARG  AR     0.000000        39.9480           0
    3723 ARGN 3723 ARG  ARG  AR     0.000000        39.9480           0
    3724 ARGN 3724 ARG  ARG  AR     0.000000        39.9480           0
    3725 ARGN 3725 ARG  ARG  AR     0.000000        39.9480           0
    3726 ARGN 3726 ARG  ARG  AR     0.000000        39.9480           0
    3727 ARGN 3727 ARG  ARG  AR     0.000000        39.9480           0
    3728 ARGN 3728 ARG  ARG  AR     0.000000        39.9480           0
    3729 ARGN 3729 ARG  ARG  AR     0.000000        39.9480           0
    3730 ARGN 3730 ARG  ARG  AR     0.000000        39.9480           0
    3731 ARGN 3731 ARG  ARG  AR     0.000000        39.9480           0
    3732 ARGN 3732 ARG  ARG  AR     0.000000        39.9480           0
    3733 ARGN 3733 ARG  ARG  AR     0.000000        39.9480           0
    3734 ARGN 3734 ARG  ARG  AR     0.000000        39.9480           0
    3735 ARGN 3735 ARG  ARG  AR     0.000000        39.9480           0
    3736 ARGN 3736 ARG  ARG  AR     0.000000        39.9480           0
    3737 ARGN 3737 ARG  ARG  AR     0.000000        39.9480           0
    3738 ARGN 3738 ARG  ARG  AR     0.000000        39.9480           0
    3739 ARGN 3739 ARG  ARG  AR     0.000000        39.9480           0
    3740 ARGN 3740 ARG  ARG  AR     0.000000        39.9480           0
    3741 ARGN 3741 ARG  ARG  AR     0.000000        39.9480           0
    3742 ARGN 3742 ARG  ARG  AR     0.000000        39.9480           0
    3743 ARGN 3743 ARG  ARG  AR     0.000000        39.9480           0
    3744 ARGN 3744 ARG  ARG  AR     0.000000        39.9480           0
    3745 ARGN 3745 ARG  ARG  AR     0.000000        39.9480           0
    3746 ARGN 3746 ARG  ARG  AR     0.000000        39.9480           0
    3747 ARGN 3747 ARG  ARG  AR     0.000000        39.9480           0
    3748 ARGN 3748 ARG  ARG  AR     0.000000        39.9480           0
    3749 ARGN 3749 ARG  ARG  AR     0.000000        39.9480           0
    3750 ARGN 3750 ARG  ARG  AR     0.000000        39.9480           0
    3751 ARGN 3751 ARG  ARG  AR     0.000000        39.9480           0
    3752 ARGN 3752 ARG  ARG  AR     0.000000        39.9480           0
    3753 ARGN 3753 ARG  ARG  AR     0.000000        39.9480           0
    3754 ARGN 3754 ARG  ARG  AR     0.000000        39.9480           0
    3755 ARGN 3755 ARG  ARG  AR     0.000000        39.9480           0
    3756 ARGN 3756 ARG  ARG  AR     0.000000        39.9480           0
    3757 ARGN 3757 ARG  ARG  AR     0.000000        39.9480           0
    3758 ARGN 3758 ARG  ARG  AR     0.000000        39.9480           0
    3759 ARGN 3759 ARG  ARG  AR     0.000000        39.9480           0
    3760 ARGN 3760 ARG  ARG  AR     0.000000        39.9480           0
    3761 ARGN 3761 ARG  ARG  AR     0.000000        39.9480           0
    3762 ARGN 3762 ARG  ARG  AR     0.000000        39.9480           0
    3763 ARGN 3763 ARG  ARG  AR     0.000000        39.9480           0
    3764 ARGN 3764 ARG  ARG  AR     0.000000        39.9480           0
    3765 ARGN 3765 ARG  ARG  AR     0.000000        39.9480           0
    3766 ARGN 3766 ARG  ARG  AR     0.000000        39.9480           0
    3767 ARGN 3767 ARG  ARG  AR     0.000000        39.9480           0
    3768 ARGN 3768 ARG  ARG  AR     0.000000        39.9480           0
    3769 ARGN 3769 ARG  ARG  AR     0.000000        39.9480           0
    3770 ARGN 3770 ARG  ARG  AR     0.000000        39.9480           0
    3771 ARGN 3771 ARG  ARG  AR     0.000000        39.9480           0
    3772 ARGN 3772 ARG  ARG  AR     0.000000        39.9480           0
    3773 ARGN 3773 ARG  ARG  AR     0.000000        39.9480           0
    3774 ARGN 3774 ARG  ARG  AR     0.000000        39.9480           0
    3775 ARGN 3775 ARG  ARG  AR     0.000000        39.9480           0
    3776 ARGN 3776 ARG  ARG  AR     0.000000        39.9480           0
    3777 ARGN 3777 ARG  ARG  AR     0.000000        39.9480           0
    3778 ARGN 3778 ARG  ARG  AR     0.000000        39.9480           0
    3779 ARGN 3779 ARG  ARG  AR     0.000000        39.9480           0
    3780 ARGN 3780 ARG  ARG  AR     0.000000        39.9480           0
    3781 ARGN 3781 ARG  ARG  AR     0.000000        39.9480           0
    3782 ARGN 3782 ARG  ARG  AR     0.000000        39.9480           0
    3783 ARGN 3783 ARG  ARG  AR     0.000000        39.9480           0
    3784 ARGN 3784 ARG  ARG  AR     0.000000        39.9480           0
    3785 ARGN 3785 ARG  ARG  AR     0.000000        39.9480           0
    3786 ARGN 3786 ARG  ARG  AR     0.000000        39.9480           0
    3787 ARGN 3787 ARG  ARG  AR     0.000000        39.9480           0
    3788 ARGN 3788 ARG  ARG  AR     0.000000        39.9480           0
    3789 ARGN 3789 ARG  ARG  AR     0.000000        39.9480           0
    3790 ARGN 3790 ARG  ARG  AR     0.000000        39.9480           0
    3791 ARGN 3791 ARG  ARG  AR     0.000000        39.9480           0
    3792 ARGN 3792 ARG  ARG  AR     0.000000        39.9480           0
    3793 ARGN 3793 ARG  ARG  AR     0.000000        39.9480           0
    3794 ARGN 3794 ARG  ARG  AR     0.000000        39.9480           0
    3795 ARGN 3795 ARG  ARG  AR     0.000000        39.9480           0
    3796 ARGN 3796 ARG  ARG  AR     0.000000        39.9480           0
    3797 ARGN 3797 ARG  ARG  AR     0.000000        39.9480           0
    3798 ARGN 3798 ARG  ARG  AR     0.000000        39.9480           0
    3799 ARGN 3799 ARG  ARG  AR     0.000000        39.9480           0
    3800 ARGN 3800 ARG  ARG  AR     0.000000        39.9480           0
    3801 ARGN 3801 ARG  ARG  AR     0.000000        39.9480           0
    3802 ARGN 3802 ARG  ARG  AR     0.000000        39.9480           0
    3803 ARGN 3803 ARG  ARG  AR     0.000000        39.9480           0
    3804 ARGN 3804 ARG  ARG  AR     0.000000        39.9480           0
    3805 ARGN 3805 ARG  ARG  AR     0.000000        39.9480           0
    3806 ARGN 3806 ARG  ARG  AR     0.000000        39.9480           0
    3807 ARGN 3807 ARG  ARG  AR     0.000000        39.9480           0
    3808 ARGN 3808 ARG  ARG  AR     0.000000        39.9480           0
    3809 ARGN 3809 ARG  ARG  AR     0.000000        39.9480           0
    3810 ARGN 3810 ARG  ARG  AR     0.000000        39.9480           0
    3811 ARGN 3811 ARG  ARG  AR     0.000000        39.9480           0
    3812 ARGN 3812 ARG  ARG  AR     0.000000        39.9480           0
    3813 ARGN 3813 ARG  ARG  AR     0.000000        39.9480           0
    3814 ARGN 3814 ARG  ARG  AR     0.000000        39.9480           0
    3815 ARGN 3815 ARG  ARG  AR     0.000000        39.9480           0
    3816 ARGN 3816 ARG  ARG  AR     0.000000        39.9480           0
    3817 ARGN 3817 ARG  ARG  AR     0.000000        39.9480           0
    3818 ARGN 3818 ARG  ARG  AR     0.000000        39.9480           0
    3819 ARGN 3819 ARG  ARG  AR     0.000000        39.9480           0
    3820 ARGN 3820 ARG  ARG  AR     0.000000        39.9480           0
    3821 ARGN 3821 ARG  ARG  AR     0.000000        39.9480           0
    3822 ARGN 3822 ARG  ARG  AR     0.000000        39.9480           0
    3823 ARGN 3823 ARG  ARG  AR     0.000000        39.9480           0
    3824 ARGN 3824 ARG  ARG  AR     0.000000        39.9480           0
    3825 ARGN 3825 ARG  ARG  AR     0.000000        39.9480           0
    3826 ARGN 3826 ARG  ARG  AR     0.000000        39.9480           0
    3827 ARGN 3827 ARG  ARG  AR     0.000000        39.9480           0
    3828 ARGN 3828 ARG  ARG  AR     0.000000        39.9480           0
    3829 ARGN 3829 ARG  ARG  AR     0.000000        39.9480           0
    3830 ARGN 3830 ARG  ARG  AR     0.000000        39.9480           0
    3831 ARGN 3831 ARG  ARG  AR     0.000000        39.9480           0
    3832 ARGN 3832 ARG  ARG  AR     0.000000        39.9480           0
    3833 ARGN 3833 ARG  ARG  AR     0.000000        39.9480           0
    3834 ARGN 3834 ARG  ARG  AR     0.000000        39.9480           0
    3835 ARGN 3835 ARG  ARG  AR     0.000000        39.9480           0
    3836 ARGN 3836 ARG  ARG  AR     0.000000        39.9480           0
    3837 ARGN 3837 ARG  ARG  AR     0.000000        39.9480           0
    3838 ARGN 3838 ARG  ARG  AR     0.000000        39.9480           0
    3839 ARGN 3839 ARG  ARG  AR     0.000000        39.9480           0
    3840 ARGN 3840 ARG  ARG  AR     0.000000        39.9480           0
    3841 ARGN 3841 ARG  ARG  AR     0.000000        39.9480           0
    3842 ARGN 3842 ARG  ARG  AR     0.000000        39.9480           0
    3843 ARGN 3843 ARG  ARG  AR     0.000000        39.9480           0
    3844 ARGN 3844 ARG  ARG  AR     0.000000        39.9480           0
    3845 ARGN 3845 ARG  ARG  AR     0.000000        39.9480           0
    3846 ARGN 3846 ARG  ARG  AR     0.000000        39.9480           0
    3847 ARGN 3847 ARG  ARG  AR     0.000000        39.9480           0
    3848 ARGN 3848 ARG  ARG  AR     0.000000        39.9480           0
    3849 ARGN 3849 ARG  ARG  AR     0.000000        39.9480           0
    3850 ARGN 3850 ARG  ARG  AR     0.000000        39.9480           0
    3851 ARGN 3851 ARG  ARG  AR     0.000000        39.9480           0
    3852 ARGN 3852 ARG  ARG  AR     0.000000        39.9480           0
    3853 ARGN 3853 ARG  ARG  AR     0.000000        39.9480           0
    3854 ARGN 3854 ARG  ARG  AR     0.000000        39.9480           0
    3855 ARGN 3855 ARG  ARG  AR     0.000000        39.9480           0
    3856 ARGN 3856 ARG  ARG  AR     0.000000        39.9480           0
    3857 ARGN 3857 ARG  ARG  AR     0.000000        39.9480           0
    3858 ARGN 3858 ARG  ARG  AR     0.000000        39.9480           0
    3859 ARGN 3859 ARG  ARG  AR     0.000000        39.9480           0
    3860 ARGN 3860 ARG  ARG  AR     0.000000        39.9480           0
    3861 ARGN 3861 ARG  ARG  AR     0.000000        39.9480           0
    3862 ARGN 3862 ARG  ARG  AR     0.000000        39.9480           0
    3863 ARGN 3863 ARG  ARG  AR     0.000000        39.9480           0
    3864 ARGN 3864 ARG  ARG  AR     0.000000        39.9480           0
    3865 ARGN 3865 ARG  ARG  AR     0.000000        39.9480           0
    3866 ARGN 3866 ARG  ARG  AR     0.000000        39.9480           0
    3867 ARGN 3867 ARG  ARG  AR     0.000000        39.9480           0
    3868 ARGN 3868 ARG  ARG  AR     0.000000        39.9480           0
    3869 ARGN 3869 ARG  ARG  AR     0.000000        39.9480           0
    3870 ARGN 3870 ARG  ARG  AR     0.000000        39.9480           0
    3871 ARGN 3871 ARG  ARG  AR     0.000000        39.9480           0
    3872 ARGN 3872 ARG  ARG  AR     0.000000        39.9480           0
    3873 ARGN 3873 ARG  ARG  AR     0.000000        39.9480           0
    3874 ARGN 3874 ARG  ARG  AR     0.000000        39.9480           0
    3875 ARGN 3875 ARG  ARG  AR     0.000000        39.9480           0
    3876 ARGN 3876 ARG  ARG  AR     0.000000        39.9480           0
    3877 ARGN 3877 ARG  ARG  AR     0.000000        39.9480           0
    3878 ARGN 3878 ARG  ARG  AR     0.000000        39.9480           0
    3879 ARGN 3879 ARG  ARG  AR     0.000000        39.9480           0
    3880 ARGN 3880 ARG  ARG  AR     0.000000        39.9480           0
    3881 ARGN 3881 ARG  ARG  AR     0.000000        39.9480           0
    3882 ARGN 3882 ARG  ARG  AR     0.000000        39.9480           0
    3883 ARGN 3883 ARG  ARG  AR     0.000000        39.9480           0
    3884 ARGN 3884 ARG  ARG  AR     0.000000        39.9480           0
    3885 ARGN 3885 ARG  ARG  AR     0.000000        39.9480           0
    3886 ARGN 3886 ARG  ARG  AR     0.000000        39.9480           0
    3887 ARGN 3887 ARG  ARG  AR     0.000000        39.9480           0
    3888 ARGN 3888 ARG  ARG  AR     0.000000        39.9480           0
    3889 ARGN 3889 ARG  ARG  AR     0.000000        39.9480           0
    3890 ARGN 3890 ARG  ARG  AR     0.000000        39.9480           0
    3891 ARGN 3891 ARG  ARG  AR     0.000000        39.9480           0
    3892 ARGN 3892 ARG  ARG  AR     0.000000        39.9480           0
    3893 ARGN 3893 ARG  ARG  AR     0.000000        39.9480           0
    3894 ARGN 3894 ARG  ARG  AR     0.000000        39.9480           0
    3895 ARGN 3895 ARG  ARG  AR     0.000000        39.9480           0
    3896 ARGN 3896 ARG  ARG  AR     0.000000        39.9480           0
    3897 ARGN 3897 ARG  ARG  AR     0.000000        39.9480           0
    3898 ARGN 3898 ARG  ARG  AR     0.000000        39.9480           0
    3899 ARGN 3899 ARG  ARG  AR     0.000000        39.9480           0
    3900 ARGN 3900 ARG  ARG  AR     0.000000        39.9480           0
    3901 ARGN 3901 ARG  ARG  AR     0.000000        39.9480           0
    3902 ARGN 3902 ARG  ARG  AR     0.000000        39.9480           0
    3903 ARGN 3903 ARG  ARG  AR     0.000000        39.9480           0
    3904 ARGN 3904 ARG  ARG  AR     0.000000        39.9480           0
    3905 ARGN 3905 ARG  ARG  AR     0.000000        39.9480           0
    3906 ARGN 3906 ARG  ARG  AR     0.000000        39.9480           0
    3907 ARGN 3907 ARG  ARG  AR     0.000000        39.9480           0
    3908 ARGN 3908 ARG  ARG  AR     0.000000        39.9480           0
    3909 ARGN 3909 ARG  ARG  AR     0.000000        39.9480           0
    3910 ARGN 3910 ARG  ARG  AR     0.000000        39.9480           0
    3911 ARGN 3911 ARG  ARG  AR     0.000000        39.9480           0
    3912 ARGN 3912 ARG  ARG  AR     0.000000        39.9480           0
    3913 ARGN 3913 ARG  ARG  AR     0.000000        39.9480           0
    3914 ARGN 3914 ARG  ARG  AR     0.000000        39.9480           0
    3915 ARGN 3915 ARG  ARG  AR     0.000000        39.9480           0
    3916 ARGN 3916 ARG  ARG  AR     0.000000        39.9480           0
    3917 ARGN 3917 ARG  ARG  AR     0.000000        39.9480           0
    3918 ARGN 3918 ARG  ARG  AR     0.000000        39.9480           0
    3919 ARGN 3919 ARG  ARG  AR     0.000000        39.9480           0
    3920 ARGN 3920 ARG  ARG  AR     0.000000        39.9480           0
    3921 ARGN 3921 ARG  ARG  AR     0.000000        39.9480           0
    3922 ARGN 3922 ARG  ARG  AR     0.000000        39.9480           0
    3923 ARGN 3923 ARG  ARG  AR     0.000000        39.9480           0
    3924 ARGN 3924 ARG  ARG  AR     0.000000        39.9480           0
    3925 ARGN 3925 ARG  ARG  AR     0.000000        39.9480           0
    3926 ARGN 3926 ARG  ARG  AR     0.000000        39.9480           0
    3927 ARGN 3927 ARG  ARG  AR     0.000000        39.9480           0
    3928 ARGN 3928 ARG  ARG  AR     0.000000        39.9480           0
    3929 ARGN 3929 ARG  ARG  AR     0.000000        39.9480           0
    3930 ARGN 3930 ARG  ARG  AR     0.000000        39.9480           0
    3931 ARGN 3931 ARG  ARG  AR     0.000000        39.9480           0
    3932 ARGN 3932 ARG  ARG  AR     0.000000        39.9480           0
    3933 ARGN 3933 ARG  ARG  AR     0.000000        39.9480           0
    3934 ARGN 3934 ARG  ARG  AR     0.000000        39.9480           0
    3935 ARGN 3935 ARG  ARG  AR     0.000000        39.9480           0
    3936 ARGN 3936 ARG  ARG  AR     0.000000        39.9480           0
    3937 ARGN 3937 ARG  ARG  AR     0.000000        39.9480           0
    3938 ARGN 3938 ARG  ARG  AR     0.000000        39.9480           0
    3939 ARGN 3939 ARG  ARG  AR     0.000000        39.9480           0
    3940 ARGN 3940 ARG  ARG  AR     0.000000        39.9480           0
    3941 ARGN 3941 ARG  ARG  AR     0.000000        39.9480           0
    3942 ARGN 3942 ARG  ARG  AR     0.000000        39.9480           0
    3943 ARGN 3943 ARG  ARG  AR     0.000000        39.9480           0
    3944 ARGN 3944 ARG  ARG  AR     0.000000        39.9480           0
    3945 ARGN 3945 ARG  ARG  AR     0.000000        39.9480           0
    3946 ARGN 3946 ARG  ARG  AR     0.000000        39.9480           0
    3947 ARGN 3947 ARG  ARG  AR     0.000000        39.9480           0
    3948 ARGN 3948 ARG  ARG  AR     0.000000        39.9480           0
    3949 ARGN 3949 ARG  ARG  AR     0.000000        39.9480           0
    3950 ARGN 3950 ARG  ARG  AR     0.000000        39.9480           0
    3951 ARGN 3951 ARG  ARG  AR     0.000000        39.9480           0
    3952 ARGN 3952 ARG  ARG  AR     0.000000        39.9480           0
    3953 ARGN 3953 ARG  ARG  AR     0.000000        39.9480           0
    3954 ARGN 3954 ARG  ARG  AR     0.000000        39.9480           0
    3955 ARGN 3955 ARG  ARG  AR     0.000000        39.9480           0
    3956 ARGN 3956 ARG  ARG  AR     0.000000        39.9480           0
    3957 ARGN 3957 ARG  ARG  AR     0.000000        39.9480           0
    3958 ARGN 3958 ARG  ARG  AR     0.000000        39.9480           0
    3959 ARGN 3959 ARG  ARG  AR     0.000000        39.9480           0
    3960 ARGN 3960 ARG  ARG  AR     0.000000        39.9480           0
    3961 ARGN 3961 ARG  ARG  AR     0.000000        39.9480           0
    3962 ARGN 3962 ARG  ARG  AR     0.000000        39.9480           0
    3963 ARGN 3963 ARG  ARG  AR     0.000000        39.9480           0
    3964 ARGN 3964 ARG  ARG  AR     0.000000        39.9480           0
    3965 ARGN 3965 ARG  ARG  AR     0.000000        39.9480           0
    3966 ARGN 3966 ARG  ARG  AR     0.000000        39.9480           0
    3967 ARGN 3967 ARG  ARG  AR     0.000000        39.9480           0
    3968 ARGN 3968 ARG  ARG  AR     0.000000        39.9480           0
    3969 ARGN 3969 ARG  ARG  AR     0.000000        39.9480           0
    3970 ARGN 3970 ARG  ARG  AR     0.000000        39.9480           0
    3971 ARGN 3971 ARG  ARG  AR     0.000000        39.9480           0
    3972 ARGN 3972 ARG  ARG  AR     0.000000        39.9480           0
    3973 ARGN 3973 ARG  ARG  AR     0.000000        39.9480           0
    3974 ARGN 3974 ARG  ARG  AR     0.000000        39.9480           0
    3975 ARGN 3975 ARG  ARG  AR     0.000000        39.9480           0
    3976 ARGN 3976 ARG  ARG  AR     0.000000        39.9480           0
    3977 ARGN 3977 ARG  ARG  AR     0.000000        39.9480           0
    3978 ARGN 3978 ARG  ARG  AR     0.000000        39.9480           0
    3979 ARGN 3979 ARG  ARG  AR     0.000000        39.9480           0
    3980 ARGN 3980 ARG  ARG  AR     0.000000        39.9480           0
    3981 ARGN 3981 ARG  ARG  AR     0.000000        39.9480           0
    3982 ARGN 3982 ARG  ARG  AR     0.000000        39.9480           0
    3983 ARGN 3983 ARG  ARG  AR     0.000000        39.9480           0
    3984 ARGN 3984 ARG  ARG  AR     0.000000        39.9480           0
    3985 ARGN 3985 ARG  ARG  AR     0.000000        39.9480           0
    3986 ARGN 3986 ARG  ARG  AR     0.000000        39.9480           0
    3987 ARGN 3987 ARG  ARG  AR     0.000000        39.9480           0
    3988 ARGN 3988 ARG  ARG  AR     0.000000        39.9480           0
    3989 ARGN 3989 ARG  ARG  AR     0.000000        39.9480           0
    3990 ARGN 3990 ARG  ARG  AR     0.000000        39.9480           0
    3991 ARGN 3991 ARG  ARG  AR     0.000000        39.9480           0
    3992 ARGN 3992 ARG  ARG  AR     0.000000        39.9480           0
    3993 ARGN 3993 ARG  ARG  AR     0.000000        39.9480           0
    3994 ARGN 3994 ARG  ARG  AR     0.000000        39.9480           0
    3995 ARGN 3995 ARG  ARG  AR     0.000000        39.9480           0
    3996 ARGN 3996 ARG  ARG  AR     0.000000        39.9480           0
    3997 ARGN 3997 ARG  ARG  AR     0.000000        39.9480           0
    3998 ARGN 3998 ARG  ARG  AR     0.000000        39.9480           0
    3999 ARGN 3999 ARG  ARG  AR     0.000000        39.9480           0
    4000 ARGN 4000 ARG  ARG  AR     0.000000        39.9480           0
    4001 ARGN 4001 ARG  ARG  AR     0.000000        39.9480           0
    4002 ARGN 4002 ARG  ARG  AR     0.000000        39.9480           0
    4003 ARGN 4003 ARG  ARG  AR     0.000000        39.9480           0
    4004 ARGN 4004 ARG  ARG  AR     0.000000        39.9480           0
    4005 ARGN 4005 ARG  ARG  AR     0.000000        39.9480           0
    4006 ARGN 4006 ARG  ARG  AR     0.000000        39.9480           0
    4007 ARGN 4007 ARG  ARG  AR     0.000000        39.9480           0
    4008 ARGN 4008 ARG  ARG  AR     0.000000        39.9480           0
    4009 ARGN 4009 ARG  ARG  AR     0.000000        39.9480           0
    4010 ARGN 4010 ARG  ARG  AR     0.000000        39.9480           0
    4011 ARGN 4011 ARG  ARG  AR     0.000000        39.9480           0
    4012 ARGN 4012 ARG  ARG  AR     0.000000        39.9480           0
    4013 ARGN 4013 ARG  ARG  AR     0.000000        39.9480           0
    4014 ARGN 4014 ARG  ARG  AR     0.000000        39.9480           0
    4015 ARGN 4015 ARG  ARG  AR     0.000000        39.9480           0
    4016 ARGN 4016 ARG  ARG  AR     0.000000        39.9480           0
    4017 ARGN 4017 ARG  ARG  AR     0.000000        39.9480           0
    4018 ARGN 4018 ARG  ARG  AR     0.000000        39.9480           0
    4019 ARGN 4019 ARG  ARG  AR     0.000000        39.9480           0
    4020 ARGN 4020 ARG  ARG  AR     0.000000        39.9480           0
    4021 ARGN 4021 ARG  ARG  AR     0.000000        39.9480           0
    4022 ARGN 4022 ARG  ARG  AR     0.000000        39.9480           0
    4023 ARGN 4023 ARG  ARG  AR     0.000000        39.9480           0
    4024 ARGN 4024 ARG  ARG  AR     0.000000        39.9480           0
    4025 ARGN 4025 ARG  ARG  AR     0.000000        39.9480           0
    4026 ARGN 4026 ARG  ARG  AR     0.000000        39.9480           0
    4027 ARGN 4027 ARG  ARG  AR     0.000000        39.9480           0
    4028 ARGN 4028 ARG  ARG  AR     0.000000        39.9480           0
    4029 ARGN 4029 ARG  ARG  AR     0.000000        39.9480           0
    4030 ARGN 4030 ARG  ARG  AR     0.000000        39.9480           0
    4031 ARGN 4031 ARG  ARG  AR     0.000000        39.9480           0
    4032 ARGN 4032 ARG  ARG  AR     0.000000        39.9480           0
    4033 ARGN 4033 ARG  ARG  AR     0.000000        39.9480           0
    4034 ARGN 4034 ARG  ARG  AR     0.000000        39.9480           0
    4035 ARGN 4035 ARG  ARG  AR     0.000000        39.9480           0
    4036 ARGN 4036 ARG  ARG  AR     0.000000        39.9480           0
    4037 ARGN 4037 ARG  ARG  AR     0.000000        39.9480           0
    4038 ARGN 4038 ARG  ARG  AR     0.000000        39.9480           0
    4039 ARGN 4039 ARG  ARG  AR     0.000000        39.9480           0
    4040 ARGN 4040 ARG  ARG  AR     0.000000        39.9480           0
    4041 ARGN 4041 ARG  ARG  AR     0.000000        39.9480           0
    4042 ARGN 4042 ARG  ARG  AR     0.000000        39.9480           0
    4043 ARGN 4043 ARG  ARG  AR     0.000000        39.9480           0
    4044 ARGN 4044 ARG  ARG  AR     0.000000        39.9480           0
    4045 ARGN 4045 ARG  ARG  AR     0.000000        39.9480           0
    4046 ARGN 4046 ARG  ARG  AR     0.000000        39.9480           0
    4047 ARGN 4047 ARG  ARG  AR     0.000000        39.9480           0
    4048 ARGN 4048 ARG  ARG  AR     0.000000        39.9480           0
    4049 ARGN 4049 ARG  ARG  AR     0.000000        39.9480           0
    4050 ARGN 4050 ARG  ARG  AR     0.000000        39.9480           0
    4051 ARGN 4051 ARG  ARG  AR     0.000000        39.9480           0
    4052 ARGN 4052 ARG  ARG  AR     0.000000        39.9480           0
    4053 ARGN 4053 ARG  ARG  AR     0.000000        39.9480           0
    4054 ARGN 4054 ARG  ARG  AR     0.000000        39.9480           0
    4055 ARGN 4055 ARG  ARG  AR     0.000000        39.9480           0
    4056 ARGN 4056 ARG  ARG  AR     0.000000        39.9480           0
    4057 ARGN 4057 ARG  ARG  AR     0.000000        39.9480           0
    4058 ARGN 4058 ARG  ARG  AR     0.000000        39.9480           0
    4059 ARGN 4059 ARG  ARG  AR     0.000000        39.9480           0
    4060 ARGN 4060 ARG  ARG  AR     0.000000        39.9480           0
    4061 ARGN 4061 ARG  ARG  AR     0.000000        39.9480           0
    4062 ARGN 4062 ARG  ARG  AR     0.000000        39.9480           0
    4063 ARGN 4063 ARG  ARG  AR     0.000000        39.9480           0
    4064 ARGN 4064 ARG  ARG  AR     0.000000        39.9480           0
    4065 ARGN 4065 ARG  ARG  AR     0.000000        39.9480           0
    4066 ARGN 4066 ARG  ARG  AR     0.000000        39.9480           0
    4067 ARGN 4067 ARG  ARG  AR     0.000000        39.9480           0
    4068 ARGN 4068 ARG  ARG  AR     0.000000        39.9480           0
    4069 ARGN 4069 ARG  ARG  AR     0.000000        39.9480           0
    4070 ARGN 4070 ARG  ARG  AR     0.000000        39.9480           0
    4071 ARGN 4071 ARG  ARG  AR     0.000000        39.9480           0
    4072 ARGN 4072 ARG  ARG  AR     0.000000        39.9480           0
    4073 ARGN 4073 ARG  ARG  AR     0.000000        39.9480           0
    4074 ARGN 4074 ARG  ARG  AR     0.000000        39.9480           0
    4075 ARGN 4075 ARG  ARG  AR     0.000000        39.9480           0
    4076 ARGN 4076 ARG  ARG  AR     0.000000        39.9480           0
    4077 ARGN 4077 ARG  ARG  AR     0.000000        39.9480           0
    4078 ARGN 4078 ARG  ARG  AR     0.000000        39.9480           0
    4079 ARGN 4079 ARG  ARG  AR     0.000000        39.9480           0
    4080 ARGN 4080 ARG  ARG  AR     0.000000        39.9480           0
    4081 ARGN 4081 ARG  ARG  AR     0.000000        39.9480           0
    4082 ARGN 4082 ARG  ARG  AR     0.000000        39.9480           0
    4083 ARGN 4083 ARG  ARG  AR     0.000000        39.9480           0
    4084 ARGN 4084 ARG  ARG  AR     0.000000        39.9480           0
    4085 ARGN 4085 ARG  ARG  AR     0.000000        39.9480           0
    4086 ARGN 4086 ARG  ARG  AR     0.000000        39.9480           0
    4087 ARGN 4087 ARG  ARG  AR     0.000000        39.9480           0
    4088 ARGN 4088 ARG  ARG  AR     0.000000        39.9480           0
    4089 ARGN 4089 ARG  ARG  AR     0.000000        39.9480           0
    4090 ARGN 4090 ARG  ARG  AR     0.000000        39.9480           0
    4091 ARGN 4091 ARG  ARG  AR     0.000000        39.9480           0
    4092 ARGN 4092 ARG  ARG  AR     0.000000        39.9480           0
    4093 ARGN 4093 ARG  ARG  AR     0.000000        39.9480           0
    4094 ARGN 4094 ARG  ARG  AR     0.000000        39.9480           0
    4095 ARGN 4095 ARG  ARG  AR     0.000000        39.9480           0
    4096 ARGN 4096 ARG  ARG  AR     0.000000        39.9480           0
    4097 ARGN 4097 ARG  ARG  AR     0.000000        39.9480           0
    4098 ARGN 4098 ARG  ARG  AR     0.000000        39.9480           0
    4099 ARGN 4099 ARG  ARG  AR     0.000000        39.9480           0
    4100 ARGN 4100 ARG  ARG  AR     0.000000        39.9480           0
    4101 ARGN 4101 ARG  ARG  AR     0.000000        39.9480           0
    4102 ARGN 4102 ARG  ARG  AR     0.000000        39.9480           0
    4103 ARGN 4103 ARG  ARG  AR     0.000000        39.9480           0
    4104 ARGN 4104 ARG  ARG  AR     0.000000        39.9480           0
    4105 ARGN 4105 ARG  ARG  AR     0.000000        39.9480           0
    4106 ARGN 4106 ARG  ARG  AR     0.000000        39.9480           0
    4107 ARGN 4107 ARG  ARG  AR     0.000000        39.9480           0
    4108 ARGN 4108 ARG  ARG  AR     0.000000        39.9480           0
    4109 ARGN 4109 ARG  ARG  AR     0.000000        39.9480           0
    4110 ARGN 4110 ARG  ARG  AR     0.000000        39.9480           0
    4111 ARGN 4111 ARG  ARG  AR     0.000000        39.9480           0
    4112 ARGN 4112 ARG  ARG  AR     0.000000        39.9480           0
    4113 ARGN 4113 ARG  ARG  AR     0.000000        39.9480           0
    4114 ARGN 4114 ARG  ARG  AR     0.000000        39.9480           0
    4115 ARGN 4115 ARG  ARG  AR     0.000000        39.9480           0
    4116 ARGN 4116 ARG  ARG  AR     0.000000        39.9480           0
    4117 ARGN 4117 ARG  ARG  AR     0.000000        39.9480           0
    4118 ARGN 4118 ARG  ARG  AR     0.000000        39.9480           0
    4119 ARGN 4119 ARG  ARG  AR     0.000000        39.9480           0
    4120 ARGN 4120 ARG  ARG  AR     0.000000        39.9480           0
    4121 ARGN 4121 ARG  ARG  AR     0.000000        39.9480           0
    4122 ARGN 4122 ARG  ARG  AR     0.000000        39.9480           0
    4123 ARGN 4123 ARG  ARG  AR     0.000000        39.9480           0
    4124 ARGN 4124 ARG  ARG  AR     0.000000        39.9480           0
    4125 ARGN 4125 ARG  ARG  AR     0.000000        39.9480           0
    4126 ARGN 4126 ARG  ARG  AR     0.000000        39.9480           0
    4127 ARGN 4127 ARG  ARG  AR     0.000000        39.9480           0
    4128 ARGN 4128 ARG  ARG  AR     0.000000        39.9480           0
    4129 ARGN 4129 ARG  ARG  AR     0.000000        39.9480           0
    4130 ARGN 4130 ARG  ARG  AR     0.000000        39.9480           0
    4131 ARGN 4131 ARG  ARG  AR     0.000000        39.9480           0
    4132 ARGN 4132 ARG  ARG  AR     0.000000        39.9480           0
    4133 ARGN 4133 ARG  ARG  AR     0.000000        39.9480           0
    4134 ARGN 4134 ARG  ARG  AR     0.000000        39.9480           0
    4135 ARGN 4135 ARG  ARG  AR     0.000000        39.9480           0
    4136 ARGN 4136 ARG  ARG  AR     0.000000        39.9480           0
    4137 ARGN 4137 ARG  ARG  AR     0.000000        39.9480           0
    4138 ARGN 4138 ARG  ARG  AR     0.000000        39.9480           0
    4139 ARGN 4139 ARG  ARG  AR     0.000000        39.9480           0
    4140 ARGN 4140 ARG  ARG  AR     0.000000        39.9480           0
    4141 ARGN 4141 ARG  ARG  AR     0.000000        39.9480           0
    4142 ARGN 4142 ARG  ARG  AR     0.000000        39.9480           0
    4143 ARGN 4143 ARG  ARG  AR     0.000000        39.9480           0
    4144 ARGN 4144 ARG  ARG  AR     0.000000        39.9480           0
    4145 ARGN 4145 ARG  ARG  AR     0.000000        39.9480           0
    4146 ARGN 4146 ARG  ARG  AR     0.000000        39.9480           0
    4147 ARGN 4147 ARG  ARG  AR     0.000000        39.9480           0
    4148 ARGN 4148 ARG  ARG  AR     0.000000        39.9480           0
    4149 ARGN 4149 ARG  ARG  AR     0.000000        39.9480           0
    4150 ARGN 4150 ARG  ARG  AR     0.000000        39.9480           0
    4151 ARGN 4151 ARG  ARG  AR     0.000000        39.9480           0
    4152 ARGN 4152 ARG  ARG  AR     0.000000        39.9480           0
    4153 ARGN 4153 ARG  ARG  AR     0.000000        39.9480           0
    4154 ARGN 4154 ARG  ARG  AR     0.000000        39.9480           0
    4155 ARGN 4155 ARG  ARG  AR     0.000000        39.9480           0
    4156 ARGN 4156 ARG  ARG  AR     0.000000        39.9480           0
    4157 ARGN 4157 ARG  ARG  AR     0.000000        39.9480           0
    4158 ARGN 4158 ARG  ARG  AR     0.000000        39.9480           0
    4159 ARGN 4159 ARG  ARG  AR     0.000000        39.9480           0
    4160 ARGN 4160 ARG  ARG  AR     0.000000        39.9480           0
    4161 ARGN 4161 ARG  ARG  AR     0.000000        39.9480           0
    4162 ARGN 4162 ARG  ARG  AR     0.000000        39.9480           0
    4163 ARGN 4163 ARG  ARG  AR     0.000000        39.9480           0
    4164 ARGN 4164 ARG  ARG  AR     0.000000        39.9480           0
    4165 ARGN 4165 ARG  ARG  AR     0.000000        39.9480           0
    4166 ARGN 4166 ARG  ARG  AR     0.000000        39.9480           0
    4167 ARGN 4167 ARG  ARG  AR     0.000000        39.9480           0
    4168 ARGN 4168 ARG  ARG  AR     0.000000        39.9480           0
    4169 ARGN 4169 ARG  ARG  AR     0.000000        39.9480           0
    4170 ARGN 4170 ARG  ARG  AR     0.000000        39.9480           0
    4171 ARGN 4171 ARG  ARG  AR     0.000000        39.9480           0
    4172 ARGN 4172 ARG  ARG  AR     0.000000        39.9480           0
    4173 ARGN 4173 ARG  ARG  AR     0.000000        39.9480           0
    4174 ARGN 4174 ARG  ARG  AR     0.000000        39.9480           0
    4175 ARGN 4175 ARG  ARG  AR     0.000000        39.9480           0
    4176 ARGN 4176 ARG  ARG  AR     0.000000        39.9480           0
    4177 ARGN 4177 ARG  ARG  AR     0.000000        39.9480           0
    4178 ARGN 4178 ARG  ARG  AR     0.000000        39.9480           0
    4179 ARGN 4179 ARG  ARG  AR     0.000000        39.9480           0
    4180 ARGN 4180 ARG  ARG  AR     0.000000        39.9480           0
    4181 ARGN 4181 ARG  ARG  AR     0.000000        39.9480           0
    4182 ARGN 4182 ARG  ARG  AR     0.000000        39.9480           0
    4183 ARGN 4183 ARG  ARG  AR     0.000000        39.9480           0
    4184 ARGN 4184 ARG  ARG  AR     0.000000        39.9480           0
    4185 ARGN 4185 ARG  ARG  AR     0.000000        39.9480           0
    4186 ARGN 4186 ARG  ARG  AR     0.000000        39.9480           0
    4187 ARGN 4187 ARG  ARG  AR     0.000000        39.9480           0
    4188 ARGN 4188 ARG  ARG  AR     0.000000        39.9480           0
    4189 ARGN 4189 ARG  ARG  AR     0.000000        39.9480           0
    4190 ARGN 4190 ARG  ARG  AR     0.000000        39.9480           0
    4191 ARGN 4191 ARG  ARG  AR     0.000000        39.9480           0
    4192 ARGN 4192 ARG  ARG  AR     0.000000        39.9480           0
    4193 ARGN 4193 ARG  ARG  AR     0.000000        39.9480           0
    4194 ARGN 4194 ARG  ARG  AR     0.000000        39.9480           0
    4195 ARGN 4195 ARG  ARG  AR     0.000000        39.9480           0
    4196 ARGN 4196 ARG  ARG  AR     0.000000        39.9480           0
    4197 ARGN 4197 ARG  ARG  AR     0.000000        39.9480           0
    4198 ARGN 4198 ARG  ARG  AR     0.000000        39.9480           0
    4199 ARGN 4199 ARG  ARG  AR     0.000000        39.9480           0
    4200 ARGN 4200 ARG  ARG  AR     0.000000        39.9480           0
    4201 ARGN 4201 ARG  ARG  AR     0.000000        39.9480           0
    4202 ARGN 4202 ARG  ARG  AR     0.000000        39.9480           0
    4203 ARGN 4203 ARG  ARG  AR     0.000000        39.9480           0
    4204 ARGN 4204 ARG  ARG  AR     0.000000        39.9480           0
    4205 ARGN 4205 ARG  ARG  AR     0.000000        39.9480           0
    4206 ARGN 4206 ARG  ARG  AR     0.000000        39.9480           0
    4207 ARGN 4207 ARG  ARG  AR     0.000000        39.9480           0
    4208 ARGN 4208 ARG  ARG  AR     0.000000        39.9480           0
    4209 ARGN 4209 ARG  ARG  AR     0.000000        39.9480           0
    4210 ARGN 4210 ARG  ARG  AR     0.000000        39.9480           0
    4211 ARGN 4211 ARG  ARG  AR     0.000000        39.9480           0
    4212 ARGN 4212 ARG  ARG  AR     0.000000        39.9480           0
    4213 ARGN 4213 ARG  ARG  AR     0.000000        39.9480           0
    4214 ARGN 4214 ARG  ARG  AR     0.000000        39.9480           0
    4215 ARGN 4215 ARG  ARG  AR     0.000000        39.9480           0
    4216 ARGN 4216 ARG  ARG  AR     0.000000        39.9480           0
    4217 ARGN 4217 ARG  ARG  AR     0.000000        39.9480           0
    4218 ARGN 4218 ARG  ARG  AR     0.000000        39.9480           0
    4219 ARGN 4219 ARG  ARG  AR     0.000000        39.9480           0
    4220 ARGN 4220 ARG  ARG  AR     0.000000        39.9480           0
    4221 ARGN 4221 ARG  ARG  AR     0.000000        39.9480           0
    4222 ARGN 4222 ARG  ARG  AR     0.000000        39.9480           0
    4223 ARGN 4223 ARG  ARG  AR     0.000000        39.9480           0
    4224 ARGN 4224 ARG  ARG  AR     0.000000        39.9480           0
    4225 ARGN 4225 ARG  ARG  AR     0.000000        39.9480           0
    4226 ARGN 4226 ARG  ARG  AR     0.000000        39.9480           0
    4227 ARGN 4227 ARG  ARG  AR     0.000000        39.9480           0
    4228 ARGN 4228 ARG  ARG  AR     0.000000        39.9480           0
    4229 ARGN 4229 ARG  ARG  AR     0.000000        39.9480           0
    4230 ARGN 4230 ARG  ARG  AR     0.000000        39.9480           0
    4231 ARGN 4231 ARG  ARG  AR     0.000000        39.9480           0
    4232 ARGN 4232 ARG  ARG  AR     0.000000        39.9480           0
    4233 ARGN 4233 ARG  ARG  AR     0.000000        39.9480           0
    4234 ARGN 4234 ARG  ARG  AR     0.000000        39.9480           0
    4235 ARGN 4235 ARG  ARG  AR     0.000000        39.9480           0
    4236 ARGN 4236 ARG  ARG  AR     0.000000        39.9480           0
    4237 ARGN 4237 ARG  ARG  AR     0.000000        39.9480           0
    4238 ARGN 4238 ARG  ARG  AR     0.000000        39.9480           0
    4239 ARGN 4239 ARG  ARG  AR     0.000000        39.9480           0
    4240 ARGN 4240 ARG  ARG  AR     0.000000        39.9480           0
    4241 ARGN 4241 ARG  ARG  AR     0.000000        39.9480           0
    4242 ARGN 4242 ARG  ARG  AR     0.000000        39.9480           0
    4243 ARGN 4243 ARG  ARG  AR     0.000000        39.9480           0
    4244 ARGN 4244 ARG  ARG  AR     0.000000        39.9480           0
    4245 ARGN 4245 ARG  ARG  AR     0.000000        39.9480           0
    4246 ARGN 4246 ARG  ARG  AR     0.000000        39.9480           0
    4247 ARGN 4247 ARG  ARG  AR     0.000000        39.9480           0
    4248 ARGN 4248 ARG  ARG  AR     0.000000        39.9480           0
    4249 ARGN 4249 ARG  ARG  AR     0.000000        39.9480           0
    4250 ARGN 4250 ARG  ARG  AR     0.000000        39.9480           0
    4251 ARGN 4251 ARG  ARG  AR     0.000000        39.9480           0
    4252 ARGN 4252 ARG  ARG  AR     0.000000        39.9480           0
    4253 ARGN 4253 ARG  ARG  AR     0.000000        39.9480           0
    4254 ARGN 4254 ARG  ARG  AR     0.000000        39.9480           0
    4255 ARGN 4255 ARG  ARG  AR     0.000000        39.9480           0
    4256 ARGN 4256 ARG  ARG  AR     0.000000        39.9480           0
    4257 ARGN 4257 ARG  ARG  AR     0.000000        39.9480           0
    4258 ARGN 4258 ARG  ARG  AR     0.000000        39.9480           0
    4259 ARGN 4259 ARG  ARG  AR     0.000000        39.9480           0
    4260 ARGN 4260 ARG  ARG  AR     0.000000        39.9480           0
    4261 ARGN 4261 ARG  ARG  AR     0.000000        39.9480           0
    4262 ARGN 4262 ARG  ARG  AR     0.000000        39.9480           0
    4263 ARGN 4263 ARG  ARG  AR     0.000000        39.9480           0
    4264 ARGN 4264 ARG  ARG  AR     0.000000        39.9480           0
    4265 ARGN 4265 ARG  ARG  AR     0.000000        39.9480           0
    4266 ARGN 4266 ARG  ARG  AR     0.000000        39.9480           0
    4267 ARGN 4267 ARG  ARG  AR     0.000000        39.9480           0
    4268 ARGN 4268 ARG  ARG  AR     0.000000        39.9480           0
    4269 ARGN 4269 ARG  ARG  AR     0.000000        39.9480           0
    4270 ARGN 4270 ARG  ARG  AR     0.000000        39.9480           0
    4271 ARGN 4271 ARG  ARG  AR     0.000000        39.9480           0
    4272 ARGN 4272 ARG  ARG  AR     0.000000        39.9480           0
    4273 ARGN 4273 ARG  ARG  AR     0.000000        39.9480           0
    4274 ARGN 4274 ARG  ARG  AR     0.000000        39.9480           0
    4275 ARGN 4275 ARG  ARG  AR     0.000000        39.9480           0
    4276 ARGN 4276 ARG  ARG  AR     0.000000        39.9480           0
    4277 ARGN 4277 ARG  ARG  AR     0.000000        39.9480           0
    4278 ARGN 4278 ARG  ARG  AR     0.000000        39.9480           0
    4279 ARGN 4279 ARG  ARG  AR     0.000000        39.9480           0
    4280 ARGN 4280 ARG  ARG  AR     0.000000        39.9480           0
    4281 ARGN 4281 ARG  ARG  AR     0.000000        39.9480           0
    4282 ARGN 4282 ARG  ARG  AR     0.000000        39.9480           0
    4283 ARGN 4283 ARG  ARG  AR     0.000000        39.9480           0
    4284 ARGN 4284 ARG  ARG  AR     0.000000        39.9480           0
    4285 ARGN 4285 ARG  ARG  AR     0.000000        39.9480           0
    4286 ARGN 4286 ARG  ARG  AR     0.000000        39.9480           0
    4287 ARGN 4287 ARG  ARG  AR     0.000000        39.9480           0
    4288 ARGN 4288 ARG  ARG  AR     0.000000        39.9480           0
    4289 ARGN 4289 ARG  ARG  AR     0.000000        39.9480           0
    4290 ARGN 4290 ARG  ARG  AR     0.000000        39.9480           0
    4291 ARGN 4291 ARG  ARG  AR     0.000000        39.9480           0
    4292 ARGN 4292 ARG  ARG  AR     0.000000        39.9480           0
    4293 ARGN 4293 ARG  ARG  AR     0.000000        39.9480           0
    4294 ARGN 4294 ARG  ARG  AR     0.000000        39.9480           0
    4295 ARGN 4295 ARG  ARG  AR     0.000000        39.9480           0
    4296 ARGN 4296 ARG  ARG  AR     0.000000        39.9480           0
    4297 ARGN 4297 ARG  ARG  AR     0.000000        39.9480           0
    4298 ARGN 4298 ARG  ARG  AR     0.000000        39.9480           0
    4299 ARGN 4299 ARG  ARG  AR     0.000000        39.9480           0
    4300 ARGN 4300 ARG  ARG  AR     0.000000        39.9480           0
    4301 ARGN 4301 ARG  ARG  AR     0.000000        39.9480           0
    4302 ARGN 4302 ARG  ARG  AR     0.000000        39.9480           0
    4303 ARGN 4303 ARG  ARG  AR     0.000000        39.9480           0
    4304 ARGN 4304 ARG  ARG  AR     0.000000        39.9480           0
    4305 ARGN 4305 ARG  ARG  AR     0.000000        39.9480           0
    4306 ARGN 4306 ARG  ARG  AR     0.000000        39.9480           0
    4307 ARGN 4307 ARG  ARG  AR     0.000000        39.9480           0
    4308 ARGN 4308 ARG  ARG  AR     0.000000        39.9480           0
    4309 ARGN 4309 ARG  ARG  AR     0.000000        39.9480           0
    4310 ARGN 4310 ARG  ARG  AR     0.000000        39.9480           0
    4311 ARGN 4311 ARG  ARG  AR     0.000000        39.9480           0
    4312 ARGN 4312 ARG  ARG  AR     0.000000        39.9480           0
    4313 ARGN 4313 ARG  ARG  AR     0.000000        39.9480           0
    4314 ARGN 4314 ARG  ARG  AR     0.000000        39.9480           0
    4315 ARGN 4315 ARG  ARG  AR     0.000000        39.9480           0
    4316 ARGN 4316 ARG  ARG  AR     0.000000        39.9480           0
    4317 ARGN 4317 ARG  ARG  AR     0.000000        39.9480           0
    4318 ARGN 4318 ARG  ARG  AR     0.000000        39.9480           0
    4319 ARGN 4319 ARG  ARG  AR     0.000000        39.9480           0
    4320 ARGN 4320 ARG  ARG  AR     0.000000        39.9480           0
    4321 ARGN 4321 ARG  ARG  AR     0.000000        39.9480           0
    4322 ARGN 4322 ARG  ARG  AR     0.000000        39.9480           0
    4323 ARGN 4323 ARG  ARG  AR     0.000000        39.9480           0
    4324 ARGN 4324 ARG  ARG  AR     0.000000        39.9480           0
    4325 ARGN 4325 ARG  ARG  AR     0.000000        39.9480           0
    4326 ARGN 4326 ARG  ARG  AR     0.000000        39.9480           0
    4327 ARGN 4327 ARG  ARG  AR     0.000000        39.9480           0
    4328 ARGN 4328 ARG  ARG  AR     0.000000        39.9480           0
    4329 ARGN 4329 ARG  ARG  AR     0.000000        39.9480           0
    4330 ARGN 4330 ARG  ARG  AR     0.000000        39.9480           0
    4331 ARGN 4331 ARG  ARG  AR     0.000000        39.9480           0
    4332 ARGN 4332 ARG  ARG  AR     0.000000        39.9480           0
    4333 ARGN 4333 ARG  ARG  AR     0.000000        39.9480           0
    4334 ARGN 4334 ARG  ARG  AR     0.000000        39.9480           0
    4335 ARGN 4335 ARG  ARG  AR     0.000000        39.9480           0
    4336 ARGN 4336 ARG  ARG  AR     0.000000        39.9480           0
    4337 ARGN 4337 ARG  ARG  AR     0.000000        39.9480           0
    4338 ARGN 4338 ARG  ARG  AR     0.000000        39.9480           0
    4339 ARGN 4339 ARG  ARG  AR     0.000000        39.9480           0
    4340 ARGN 4340 ARG  ARG  AR     0.000000        39.9480           0
    4341 ARGN 4341 ARG  ARG  AR     0.000000        39.9480           0
    4342 ARGN 4342 ARG  ARG  AR     0.000000        39.9480           0
    4343 ARGN 4343 ARG  ARG  AR     0.000000        39.9480           0
    4344 ARGN 4344 ARG  ARG  AR     0.000000        39.9480           0
    4345 ARGN 4345 ARG  ARG  AR     0.000000        39.9480           0
    4346 ARGN 4346 ARG  ARG  AR     0.000000        39.9480           0
    4347 ARGN 4347 ARG  ARG  AR     0.000000        39.9480           0
    4348 ARGN 4348 ARG  ARG  AR     0.000000        39.9480           0
    4349 ARGN 4349 ARG  ARG  AR     0.000000        39.9480           0
    4350 ARGN 4350 ARG  ARG  AR     0.000000        39.9480           0
    4351 ARGN 4351 ARG  ARG  AR     0.000000        39.9480           0
    4352 ARGN 4352 ARG  ARG  AR     0.000000        39.9480           0
    4353 ARGN 4353 ARG  ARG  AR     0.000000        39.9480           0
    4354 ARGN 4354 ARG  ARG  AR     0.000000        39.9480           0
    4355 ARGN 4355 ARG  ARG  AR     0.000000        39.9480           0
    4356 ARGN 4356 ARG  ARG  AR     0.000000        39.9480           0
    4357 ARGN 4357 ARG  ARG  AR     0.000000        39.9480           0
    4358 ARGN 4358 ARG  ARG  AR     0.000000        39.9480           0
    4359 ARGN 4359 ARG  ARG  AR     0.000000        39.9480           0
    4360 ARGN 4360 ARG  ARG  AR     0.000000        39.9480           0
    4361 ARGN 4361 ARG  ARG  AR     0.000000        39.9480           0
    4362 ARGN 4362 ARG  ARG  AR     0.000000        39.9480           0
    4363 ARGN 4363 ARG  ARG  AR     0.000000        39.9480           0
    4364 ARGN 4364 ARG  ARG  AR     0.000000        39.9480           0
    4365 ARGN 4365 ARG  ARG  AR     0.000000        39.9480           0
    4366 ARGN 4366 ARG  ARG  AR     0.000000        39.9480           0
    4367 ARGN 4367 ARG  ARG  AR     0.000000        39.9480           0
    4368 ARGN 4368 ARG  ARG  AR     0.000000        39.9480           0
    4369 ARGN 4369 ARG  ARG  AR     0.000000        39.9480           0
    4370 ARGN 4370 ARG  ARG  AR     0.000000        39.9480           0
    4371 ARGN 4371 ARG  ARG  AR     0.000000        39.9480           0
    4372 ARGN 4372 ARG  ARG  AR     0.000000        39.9480           0
    4373 ARGN 4373 ARG  ARG  AR     0.000000        39.9480           0
    4374 ARGN 4374 ARG  ARG  AR     0.000000        39.9480           0
    4375 ARGN 4375 ARG  ARG  AR     0.000000        39.9480           0
    4376 ARGN 4376 ARG  ARG  AR     0.000000        39.9480           0
    4377 ARGN 4377 ARG  ARG  AR     0.000000        39.9480           0
    4378 ARGN 4378 ARG  ARG  AR     0.000000        39.9480           0
    4379 ARGN 4379 ARG  ARG  AR     0.000000        39.9480           0
    4380 ARGN 4380 ARG  ARG  AR     0.000000        39.9480           0
    4381 ARGN 4381 ARG  ARG  AR     0.000000        39.9480           0
    4382 ARGN 4382 ARG  ARG  AR     0.000000        39.9480           0
    4383 ARGN 4383 ARG  ARG  AR     0.000000        39.9480           0
    4384 ARGN 4384 ARG  ARG  AR     0.000000        39.9480           0
    4385 ARGN 4385 ARG  ARG  AR     0.000000        39.9480           0
    4386 ARGN 4386 ARG  ARG  AR     0.000000        39.9480           0
    4387 ARGN 4387 ARG  ARG  AR     0.000000        39.9480           0
    4388 ARGN 4388 ARG  ARG  AR     0.000000        39.9480           0
    4389 ARGN 4389 ARG  ARG  AR     0.000000        39.9480           0
    4390 ARGN 4390 ARG  ARG  AR     0.000000        39.9480           0
    4391 ARGN 4391 ARG  ARG  AR     0.000000        39.9480           0
    4392 ARGN 4392 ARG  ARG  AR     0.000000        39.9480           0
    4393 ARGN 4393 ARG  ARG  AR     0.000000        39.9480           0
    4394 ARGN 4394 ARG  ARG  AR     0.000000        39.9480           0
    4395 ARGN 4395 ARG  ARG  AR     0.000000        39.9480           0
    4396 ARGN 4396 ARG  ARG  AR     0.000000        39.9480           0
    4397 ARGN 4397 ARG  ARG  AR     0.000000        39.9480           0
    4398 ARGN 4398 ARG  ARG  AR     0.000000        39.9480           0
    4399 ARGN 4399 ARG  ARG  AR     0.000000        39.9480           0
    4400 ARGN 4400 ARG  ARG  AR     0.000000        39.9480           0
    4401 ARGN 4401 ARG  ARG  AR     0.000000        39.9480           0
    4402 ARGN 4402 ARG  ARG  AR     0.000000        39.9480           0
    4403 ARGN 4403 ARG  ARG  AR     0.000000        39.9480           0
    4404 ARGN 4404 ARG  ARG  AR     0.000000        39.9480           0
    4405 ARGN 4405 ARG  ARG  AR     0.000000        39.9480           0
    4406 ARGN 4406 ARG  ARG  AR     0.000000        39.9480           0
    4407 ARGN 4407 ARG  ARG  AR     0.000000        39.9480           0
    4408 ARGN 4408 ARG  ARG  AR     0.000000        39.9480           0
    4409 ARGN 4409 ARG  ARG  AR     0.000000        39.9480           0
    4410 ARGN 4410 ARG  ARG  AR     0.000000        39.9480           0
    4411 ARGN 4411 ARG  ARG  AR     0.000000        39.9480           0
    4412 ARGN 4412 ARG  ARG  AR     0.000000        39.9480           0
    4413 ARGN 4413 ARG  ARG  AR     0.000000        39.9480           0
    4414 ARGN 4414 ARG  ARG  AR     0.000000        39.9480           0
    4415 ARGN 4415 ARG  ARG  AR     0.000000        39.9480           0
    4416 ARGN 4416 ARG  ARG  AR     0.000000        39.9480           0
    4417 ARGN 4417 ARG  ARG  AR     0.000000        39.9480           0
    4418 ARGN 4418 ARG  ARG  AR     0.000000        39.9480           0
    4419 ARGN 4419 ARG  ARG  AR     0.000000        39.9480           0
    4420 ARGN 4420 ARG  ARG  AR     0.000000        39.9480           0
    4421 ARGN 4421 ARG  ARG  AR     0.000000        39.9480           0
    4422 ARGN 4422 ARG  ARG  AR     0.000000        39.9480           0
    4423 ARGN 4423 ARG  ARG  AR     0.000000        39.9480           0
    4424 ARGN 4424 ARG  ARG  AR     0.000000        39.9480           0
    4425 ARGN 4425 ARG  ARG  AR     0.000000        39.9480           0
    4426 ARGN 4426 ARG  ARG  AR     0.000000        39.9480           0
    4427 ARGN 4427 ARG  ARG  AR     0.000000        39.9480           0
    4428 ARGN 4428 ARG  ARG  AR     0.000000        39.9480           0
    4429 ARGN 4429 ARG  ARG  AR     0.000000        39.9480           0
    4430 ARGN 4430 ARG  ARG  AR     0.000000        39.9480           0
    4431 ARGN 4431 ARG  ARG  AR     0.000000        39.9480           0
    4432 ARGN 4432 ARG  ARG  AR     0.000000        39.9480           0
    4433 ARGN 4433 ARG  ARG  AR     0.000000        39.9480           0
    4434 ARGN 4434 ARG  ARG  AR     0.000000        39.9480           0
    4435 ARGN 4435 ARG  ARG  AR     0.000000        39.9480           0
    4436 ARGN 4436 ARG  ARG  AR     0.000000        39.9480           0
    4437 ARGN 4437 ARG  ARG  AR     0.000000        39.9480           0
    4438 ARGN 4438 ARG  ARG  AR     0.000000        39.9480           0
    4439 ARGN 4439 ARG  ARG  AR     0.000000        39.9480           0
    4440 ARGN 4440 ARG  ARG  AR     0.000000        39.9480           0
    4441 ARGN 4441 ARG  ARG  AR     0.000000        39.9480           0
    4442 ARGN 4442 ARG  ARG  AR     0.000000        39.9480           0
    4443 ARGN 4443 ARG  ARG  AR     0.000000        39.9480           0
    4444 ARGN 4444 ARG  ARG  AR     0.000000        39.9480           0
    4445 ARGN 4445 ARG  ARG  AR     0.000000        39.9480           0
    4446 ARGN 4446 ARG  ARG  AR     0.000000        39.9480           0
    4447 ARGN 4447 ARG  ARG  AR     0.000000        39.9480           0
    4448 ARGN 4448 ARG  ARG  AR     0.000000        39.9480           0
    4449 ARGN 4449 ARG  ARG  AR     0.000000        39.9480           0
    4450 ARGN 4450 ARG  ARG  AR     0.000000        39.9480           0
    4451 ARGN 4451 ARG  ARG  AR     0.000000        39.9480           0
    4452 ARGN 4452 ARG  ARG  AR     0.000000        39.9480           0
    4453 ARGN 4453 ARG  ARG  AR     0.000000        39.9480           0
    4454 ARGN 4454 ARG  ARG  AR     0.000000        39.9480           0
    4455 ARGN 4455 ARG  ARG  AR     0.000000        39.9480           0
    4456 ARGN 4456 ARG  ARG  AR     0.000000        39.9480           0
    4457 ARGN 4457 ARG  ARG  AR     0.000000        39.9480           0
    4458 ARGN 4458 ARG  ARG  AR     0.000000        39.9480           0
    4459 ARGN 4459 ARG  ARG  AR     0.000000        39.9480           0
    4460 ARGN 4460 ARG  ARG  AR     0.000000        39.9480           0
    4461 ARGN 4461 ARG  ARG  AR     0.000000        39.9480           0
    4462 ARGN 4462 ARG  ARG  AR     0.000000        39.9480           0
    4463 ARGN 4463 ARG  ARG  AR     0.000000        39.9480           0
    4464 ARGN 4464 ARG  ARG  AR     0.000000        39.9480           0
    4465 ARGN 4465 ARG  ARG  AR     0.000000        39.9480           0
    4466 ARGN 4466 ARG  ARG  AR     0.000000        39.9480           0
    4467 ARGN 4467 ARG  ARG  AR     0.000000        39.9480           0
    4468 ARGN 4468 ARG  ARG  AR     0.000000        39.9480           0
    4469 ARGN 4469 ARG  ARG  AR     0.000000        39.9480           0
    4470 ARGN 4470 ARG  ARG  AR     0.000000        39.9480           0
    4471 ARGN 4471 ARG  ARG  AR     0.000000        39.9480           0
    4472 ARGN 4472 ARG  ARG  AR     0.000000        39.9480           0
    4473 ARGN 4473 ARG  ARG  AR     0.000000        39.9480           0
    4474 ARGN 4474 ARG  ARG  AR     0.000000        39.9480           0
    4475 ARGN 4475 ARG  ARG  AR     0.000000        39.9480           0
    4476 ARGN 4476 ARG  ARG  AR     0.000000        39.9480           0
    4477 ARGN 4477 ARG  ARG  AR     0.000000        39.9480           0
    4478 ARGN 4478 ARG  ARG  AR     0.000000        39.9480           0
    4479 ARGN 4479 ARG  ARG  AR     0.000000        39.9480           0
    4480 ARGN 4480 ARG  ARG  AR     0.000000        39.9480           0
    4481 ARGN 4481 ARG  ARG  AR     0.000000        39.9480           0
    4482 ARGN 4482 ARG  ARG  AR     0.000000        39.9480           0
    4483 ARGN 4483 ARG  ARG  AR     0.000000        39.9480           0
    4484 ARGN 4484 ARG  ARG  AR     0.000000        39.9480           0
    4485 ARGN 4485 ARG  ARG  AR     0.000000        39.9480           0
    4486 ARGN 4486 ARG  ARG  AR     0.000000        39.9480           0
    4487 ARGN 4487 ARG  ARG  AR     0.000000        39.9480           0
    4488 ARGN 4488 ARG  ARG  AR     0.000000        39.9480           0
    4489 ARGN 4489 ARG  ARG  AR     0.000000        39.9480           0
    4490 ARGN 4490 ARG  ARG  AR     0.000000        39.9480           0
    4491 ARGN 4491 ARG  ARG  AR     0.000000        39.9480           0
    4492 ARGN 4492 ARG  ARG  AR     0.000000        39.9480           0
    4493 ARGN 4493 ARG  ARG  AR     0.000000        39.9480           0
    4494 ARGN 4494 ARG  ARG  AR     0.000000        39.9480           0
    4495 ARGN 4495 ARG  ARG  AR     0.000000        39.9480           0
    4496 ARGN 4496 ARG  ARG  AR     0.000000        39.9480           0
    4497 ARGN 4497 ARG  ARG  AR     0.000000        39.9480           0
    4498 ARGN 4498 ARG  ARG  AR     0.000000        39.9480           0
    4499 ARGN 4499 ARG  ARG  AR     0.000000        39.9480           0
    4500 ARGN 4500 ARG  ARG  AR     0.000000        39.9480           0
    4501 ARGN 4501 ARG  ARG  AR     0.000000        39.9480           0
    4502 ARGN 4502 ARG  ARG  AR     0.000000        39.9480           0
    4503 ARGN 4503 ARG  ARG  AR     0.000000        39.9480           0
    4504 ARGN 4504 ARG  ARG  AR     0.000000        39.9480           0
    4505 ARGN 4505 ARG  ARG  AR     0.000000        39.9480           0
    4506 ARGN 4506 ARG  ARG  AR     0.000000        39.9480           0
    4507 ARGN 4507 ARG  ARG  AR     0.000000        39.9480           0
    4508 ARGN 4508 ARG  ARG  AR     0.000000        39.9480           0
    4509 ARGN 4509 ARG  ARG  AR     0.000000        39.9480           0
    4510 ARGN 4510 ARG  ARG  AR     0.000000        39.9480           0
    4511 ARGN 4511 ARG  ARG  AR     0.000000        39.9480           0
    4512 ARGN 4512 ARG  ARG  AR     0.000000        39.9480           0
    4513 ARGN 4513 ARG  ARG  AR     0.000000        39.9480           0
    4514 ARGN 4514 ARG  ARG  AR     0.000000        39.9480           0
    4515 ARGN 4515 ARG  ARG  AR     0.000000        39.9480           0
    4516 ARGN 4516 ARG  ARG  AR     0.000000        39.9480           0
    4517 ARGN 4517 ARG  ARG  AR     0.000000        39.9480           0
    4518 ARGN 4518 ARG  ARG  AR     0.000000        39.9480           0
    4519 ARGN 4519 ARG  ARG  AR     0.000000        39.9480           0
    4520 ARGN 4520 ARG  ARG  AR     0.000000        39.9480           0
    4521 ARGN 4521 ARG  ARG  AR     0.000000        39.9480           0
    4522 ARGN 4522 ARG  ARG  AR     0.000000        39.9480           0
    4523 ARGN 4523 ARG  ARG  AR     0.000000        39.9480           0
    4524 ARGN 4524 ARG  ARG  AR     0.000000        39.9480           0
    4525 ARGN 4525 ARG  ARG  AR     0.000000        39.9480           0
    4526 ARGN 4526 ARG  ARG  AR     0.000000        39.9480           0
    4527 ARGN 4527 ARG  ARG  AR     0.000000        39.9480           0
    4528 ARGN 4528 ARG  ARG  AR     0.000000        39.9480           0
    4529 ARGN 4529 ARG  ARG  AR     0.000000        39.9480           0
    4530 ARGN 4530 ARG  ARG  AR     0.000000        39.9480           0
    4531 ARGN 4531 ARG  ARG  AR     0.000000        39.9480           0
    4532 ARGN 4532 ARG  ARG  AR     0.000000        39.9480           0
    4533 ARGN 4533 ARG  ARG  AR     0.000000        39.9480           0
    4534 ARGN 4534 ARG  ARG  AR     0.000000        39.9480           0
    4535 ARGN 4535 ARG  ARG  AR     0.000000        39.9480           0
    4536 ARGN 4536 ARG  ARG  AR     0.000000        39.9480           0
    4537 ARGN 4537 ARG  ARG  AR     0.000000        39.9480           0
    4538 ARGN 4538 ARG  ARG  AR     0.000000        39.9480           0
    4539 ARGN 4539 ARG  ARG  AR     0.000000        39.9480           0
    4540 ARGN 4540 ARG  ARG  AR     0.000000        39.9480           0
    4541 ARGN 4541 ARG  ARG  AR     0.000000        39.9480           0
    4542 ARGN 4542 ARG  ARG  AR     0.000000        39.9480           0
    4543 ARGN 4543 ARG  ARG  AR     0.000000        39.9480           0
    4544 ARGN 4544 ARG  ARG  AR     0.000000        39.9480           0
    4545 ARGN 4545 ARG  ARG  AR     0.000000        39.9480           0
    4546 ARGN 4546 ARG  ARG  AR     0.000000        39.9480           0
    4547 ARGN 4547 ARG  ARG  AR     0.000000        39.9480           0
    4548 ARGN 4548 ARG  ARG  AR     0.000000        39.9480           0
    4549 ARGN 4549 ARG  ARG  AR     0.000000        39.9480           0
    4550 ARGN 4550 ARG  ARG  AR     0.000000        39.9480           0
    4551 ARGN 4551 ARG  ARG  AR     0.000000        39.9480           0
    4552 ARGN 4552 ARG  ARG  AR     0.000000        39.9480           0
    4553 ARGN 4553 ARG  ARG  AR     0.000000        39.9480           0
    4554 ARGN 4554 ARG  ARG  AR     0.000000        39.9480           0
    4555 ARGN 4555 ARG  ARG  AR     0.000000        39.9480           0
    4556 ARGN 4556 ARG  ARG  AR     0.000000        39.9480           0
    4557 ARGN 4557 ARG  ARG  AR     0.000000        39.9480           0
    4558 ARGN 4558 ARG  ARG  AR     0.000000        39.9480           0
    4559 ARGN 4559 ARG  ARG  AR     0.000000        39.9480           0
    4560 ARGN 4560 ARG  ARG  AR     0.000000        39.9480           0
    4561 ARGN 4561 ARG  ARG  AR     0.000000        39.9480           0
    4562 ARGN 4562 ARG  ARG  AR     0.000000        39.9480           0
    4563 ARGN 4563 ARG  ARG  AR     0.000000        39.9480           0
    4564 ARGN 4564 ARG  ARG  AR     0.000000        39.9480           0
    4565 ARGN 4565 ARG  ARG  AR     0.000000        39.9480           0
    4566 ARGN 4566 ARG  ARG  AR     0.000000        39.9480           0
    4567 ARGN 4567 ARG  ARG  AR     0.000000        39.9480           0
    4568 ARGN 4568 ARG  ARG  AR     0.000000        39.9480           0
    4569 ARGN 4569 ARG  ARG  AR     0.000000        39.9480           0
    4570 ARGN 4570 ARG  ARG  AR     0.000000        39.9480           0
    4571 ARGN 4571 ARG  ARG  AR     0.000000        39.9480           0
    4572 ARGN 4572 ARG  ARG  AR     0.000000        39.9480           0
    4573 ARGN 4573 ARG  ARG  AR     0.000000        39.9480           0
    4574 ARGN 4574 ARG  ARG  AR     0.000000        39.9480           0
    4575 ARGN 4575 ARG  ARG  AR     0.000000        39.9480           0
    4576 ARGN 4576 ARG  ARG  AR     0.000000        39.9480           0
    4577 ARGN 4577 ARG  ARG  AR     0.000000        39.9480           0
    4578 ARGN 4578 ARG  ARG  AR     0.000000        39.9480           0
    4579 ARGN 4579 ARG  ARG  AR     0.000000        39.9480           0
    4580 ARGN 4580 ARG  ARG  AR     0.000000        39.9480           0
    4581 ARGN 4581 ARG  ARG  AR     0.000000        39.9480           0
    4582 ARGN 4582 ARG  ARG  AR     0.000000        39.9480           0
    4583 ARGN 4583 ARG  ARG  AR     0.000000        39.9480           0
    4584 ARGN 4584 ARG  ARG  AR     0.000000        39.9480           0
    4585 ARGN 4585 ARG  ARG  AR     0.000000        39.9480           0
    4586 ARGN 4586 ARG  ARG  AR     0.000000        39.9480           0
    4587 ARGN 4587 ARG  ARG  AR     0.000000        39.9480           0
    4588 ARGN 4588 ARG  ARG  AR     0.000000        39.9480           0
    4589 ARGN 4589 ARG  ARG  AR     0.000000        39.9480           0
    4590 ARGN 4590 ARG  ARG  AR     0.000000        39.9480           0
    4591 ARGN 4591 ARG  ARG  AR     0.000000        39.9480           0
    4592 ARGN 4592 ARG  ARG  AR     0.000000        39.9480           0
    4593 ARGN 4593 ARG  ARG  AR     0.000000        39.9480           0
    4594 ARGN 4594 ARG  ARG  AR     0.000000        39.9480           0
    4595 ARGN 4595 ARG  ARG  AR     0.000000        39.9480           0
    4596 ARGN 4596 ARG  ARG  AR     0.000000        39.9480           0
    4597 ARGN 4597 ARG  ARG  AR     0.000000        39.9480           0
    4598 ARGN 4598 ARG  ARG  AR     0.000000        39.9480           0
    4599 ARGN 4599 ARG  ARG  AR     0.000000        39.9480           0
    4600 ARGN 4600 ARG  ARG  AR     0.000000        39.9480           0
    4601 ARGN 4601 ARG  ARG  AR     0.000000        39.9480           0
    4602 ARGN 4602 ARG  ARG  AR     0.000000        39.9480           0
    4603 ARGN 4603 ARG  ARG  AR     0.000000        39.9480           0
    4604 ARGN 4604 ARG  ARG  AR     0.000000        39.9480           0
    4605 ARGN 4605 ARG  ARG  AR     0.000000        39.9480           0
    4606 ARGN 4606 ARG  ARG  AR     0.000000        39.9480           0
    4607 ARGN 4607 ARG  ARG  AR     0.000000        39.9480           0
    4608 ARGN 4608 ARG  ARG  AR     0.000000        39.9480           0
    4609 ARGN 4609 ARG  ARG  AR     0.000000        39.9480           0
    4610 ARGN 4610 ARG  ARG  AR     0.000000        39.9480           0
    4611 ARGN 4611 ARG  ARG  AR     0.000000        39.9480           0
    4612 ARGN 4612 ARG  ARG  AR     0.000000        39.9480           0
    4613 ARGN 4613 ARG  ARG  AR     0.000000        39.9480           0
    4614 ARGN 4614 ARG  ARG  AR     0.000000        39.9480           0
    4615 ARGN 4615 ARG  ARG  AR     0.000000        39.9480           0
    4616 ARGN 4616 ARG  ARG  AR     0.000000        39.9480           0
    4617 ARGN 4617 ARG  ARG  AR     0.000000        39.9480           0
    4618 ARGN 4618 ARG  ARG  AR     0.000000        39.9480           0
    4619 ARGN 4619 ARG  ARG  AR     0.000000        39.9480           0
    4620 ARGN 4620 ARG  ARG  AR     0.000000        39.9480           0
    4621 ARGN 4621 ARG  ARG  AR     0.000000        39.9480           0
    4622 ARGN 4622 ARG  ARG  AR     0.000000        39.9480           0
    4623 ARGN 4623 ARG  ARG  AR     0.000000        39.9480           0
    4624 ARGN 4624 ARG  ARG  AR     0.000000        39.9480           0
    4625 ARGN 4625 ARG  ARG  AR     0.000000        39.9480           0
    4626 ARGN 4626 ARG  ARG  AR     0.000000        39.9480           0
    4627 ARGN 4627 ARG  ARG  AR     0.000000        39.9480           0
    4628 ARGN 4628 ARG  ARG  AR     0.000000        39.9480           0
    4629 ARGN 4629 ARG  ARG  AR     0.000000        39.9480           0
    4630 ARGN 4630 ARG  ARG  AR     0.000000        39.9480           0
    4631 ARGN 4631 ARG  ARG  AR     0.000000        39.9480           0
    4632 ARGN 4632 ARG  ARG  AR     0.000000        39.9480           0
    4633 ARGN 4633 ARG  ARG  AR     0.000000        39.9480           0
    4634 ARGN 4634 ARG  ARG  AR     0.000000        39.9480           0
    4635 ARGN 4635 ARG  ARG  AR     0.000000        39.9480           0
    4636 ARGN 4636 ARG  ARG  AR     0.000000        39.9480           0
    4637 ARGN 4637 ARG  ARG  AR     0.000000        39.9480           0
    4638 ARGN 4638 ARG  ARG  AR     0.000000        39.9480           0
    4639 ARGN 4639 ARG  ARG  AR     0.000000        39.9480           0
    4640 ARGN 4640 ARG  ARG  AR     0.000000        39.9480           0
    4641 ARGN 4641 ARG  ARG  AR     0.000000        39.9480           0
    4642 ARGN 4642 ARG  ARG  AR     0.000000        39.9480           0
    4643 ARGN 4643 ARG  ARG  AR     0.000000        39.9480           0
    4644 ARGN 4644 ARG  ARG  AR     0.000000        39.9480           0
    4645 ARGN 4645 ARG  ARG  AR     0.000000        39.9480           0
    4646 ARGN 4646 ARG  ARG  AR     0.000000        39.9480           0
    4647 ARGN 4647 ARG  ARG  AR     0.000000        39.9480           0
    4648 ARGN 4648 ARG  ARG  AR     0.000000        39.9480           0
    4649 ARGN 4649 ARG  ARG  AR     0.000000        39.9480           0
    4650 ARGN 4650 ARG  ARG  AR     0.000000        39.9480           0
    4651 ARGN 4651 ARG  ARG  AR     0.000000        39.9480           0
    4652 ARGN 4652 ARG  ARG  AR     0.000000        39.9480           0
    4653 ARGN 4653 ARG  ARG  AR     0.000000        39.9480           0
    4654 ARGN 4654 ARG  ARG  AR     0.000000        39.9480           0
    4655 ARGN 4655 ARG  ARG  AR     0.000000        39.9480           0
    4656 ARGN 4656 ARG  ARG  AR     0.000000        39.9480           0
    4657 ARGN 4657 ARG  ARG  AR     0.000000        39.9480           0
    4658 ARGN 4658 ARG  ARG  AR     0.000000        39.9480           0
    4659 ARGN 4659 ARG  ARG  AR     0.000000        39.9480           0
    4660 ARGN 4660 ARG  ARG  AR     0.000000        39.9480           0
    4661 ARGN 4661 ARG  ARG  AR     0.000000        39.9480           0
    4662 ARGN 4662 ARG  ARG  AR     0.000000        39.9480           0
    4663 ARGN 4663 ARG  ARG  AR     0.000000        39.9480           0
    4664 ARGN 4664 ARG  ARG  AR     0.000000        39.9480           0
    4665 ARGN 4665 ARG  ARG  AR     0.000000        39.9480           0
    4666 ARGN 4666 ARG  ARG  AR     0.000000        39.9480           0
    4667 ARGN 4667 ARG  ARG  AR     0.000000        39.9480           0
    4668 ARGN 4668 ARG  ARG  AR     0.000000        39.9480           0
    4669 ARGN 4669 ARG  ARG  AR     0.000000        39.9480           0
    4670 ARGN 4670 ARG  ARG  AR     0.000000        39.9480           0
    4671 ARGN 4671 ARG  ARG  AR     0.000000        39.9480           0
    4672 ARGN 4672 ARG  ARG  AR     0.000000        39.9480           0
    4673 ARGN 4673 ARG  ARG  AR     0.000000        39.9480           0
    4674 ARGN 4674 ARG  ARG  AR     0.000000        39.9480           0
    4675 ARGN 4675 ARG  ARG  AR     0.000000        39.9480           0
    4676 ARGN 4676 ARG  ARG  AR     0.000000        39.9480           0
    4677 ARGN 4677 ARG  ARG  AR     0.000000        39.9480           0
    4678 ARGN 4678 ARG  ARG  AR     0.000000        39.9480           0
    4679 ARGN 4679 ARG  ARG  AR     0.000000        39.9480           0
    4680 ARGN 4680 ARG  ARG  AR     0.000000        39.9480           0
    4681 ARGN 4681 ARG  ARG  AR     0.000000        39.9480           0
    4682 ARGN 4682 ARG  ARG  AR     0.000000        39.9480           0
    4683 ARGN 4683 ARG  ARG  AR     0.000000        39.9480           0
    4684 ARGN 4684 ARG  ARG  AR     0.000000        39.9480           0
    4685 ARGN 4685 ARG  ARG  AR     0.000000        39.9480           0
    4686 ARGN 4686 ARG  ARG  AR     0.000000        39.9480           0
    4687 ARGN 4687 ARG  ARG  AR     0.000000        39.9480           0
    4688 ARGN 4688 ARG  ARG  AR     0.000000        39.9480           0
    4689 ARGN 4689 ARG  ARG  AR     0.000000        39.9480           0
    4690 ARGN 4690 ARG  ARG  AR     0.000000        39.9480           0
    4691 ARGN 4691 ARG  ARG  AR     0.000000        39.9480           0
    4692 ARGN 4692 ARG  ARG  AR     0.000000        39.9480           0
    4693 ARGN 4693 ARG  ARG  AR     0.000000        39.9480           0
    4694 ARGN 4694 ARG  ARG  AR     0.000000        39.9480           0
    4695 ARGN 4695 ARG  ARG  AR     0.000000        39.9480           0
    4696 ARGN 4696 ARG  ARG  AR     0.000000        39.9480           0
    4697 ARGN 4697 ARG  ARG  AR     0.000000        39.9480           0
    4698 ARGN 4698 ARG  ARG  AR     0.000000        39.9480           0
    4699 ARGN 4699 ARG  ARG  AR     0.000000        39.9480           0
    4700 ARGN 4700 ARG  ARG  AR     0.000000        39.9480           0
    4701 ARGN 4701 ARG  ARG  AR     0.000000        39.9480           0
    4702 ARGN 4702 ARG  ARG  AR     0.000000        39.9480           0
    4703 ARGN 4703 ARG  ARG  AR     0.000000        39.9480           0
    4704 ARGN 4704 ARG  ARG  AR     0.000000        39.9480           0
    4705 ARGN 4705 ARG  ARG  AR     0.000000        39.9480           0
    4706 ARGN 4706 ARG  ARG  AR     0.000000        39.9480           0
    4707 ARGN 4707 ARG  ARG  AR     0.000000        39.9480           0
    4708 ARGN 4708 ARG  ARG  AR     0.000000        39.9480           0
    4709 ARGN 4709 ARG  ARG  AR     0.000000        39.9480           0
    4710 ARGN 4710 ARG  ARG  AR     0.000000        39.9480           0
    4711 ARGN 4711 ARG  ARG  AR     0.000000        39.9480           0
    4712 ARGN 4712 ARG  ARG  AR     0.000000        39.9480           0
    4713 ARGN 4713 ARG  ARG  AR     0.000000        39.9480           0
    4714 ARGN 4714 ARG  ARG  AR     0.000000        39.9480           0
    4715 ARGN 4715 ARG  ARG  AR     0.000000        39.9480           0
    4716 ARGN 4716 ARG  ARG  AR     0.000000        39.9480           0
    4717 ARGN 4717 ARG  ARG  AR     0.000000        39.9480           0
    4718 ARGN 4718 ARG  ARG  AR     0.000000        39.9480           0
    4719 ARGN 4719 ARG  ARG  AR     0.000000        39.9480           0
    4720 ARGN 4720 ARG  ARG  AR     0.000000        39.9480           0
    4721 ARGN 4721 ARG  ARG  AR     0.000000        39.9480           0
    4722 ARGN 4722 ARG  ARG  AR     0.000000        39.9480           0
    4723 ARGN 4723 ARG  ARG  AR     0.000000        39.9480           0
    4724 ARGN 4724 ARG  ARG  AR     0.000000        39.9480           0
    4725 ARGN 4725 ARG  ARG  AR     0.000000        39.9480           0
    4726 ARGN 4726 ARG  ARG  AR     0.000000        39.9480           0
    4727 ARGN 4727 ARG  ARG  AR     0.000000        39.9480           0
    4728 ARGN 4728 ARG  ARG  AR     0.000000        39.9480           0
    4729 ARGN 4729 ARG  ARG  AR     0.000000        39.9480           0
    4730 ARGN 4730 ARG  ARG  AR     0.000000        39.9480           0
    4731 ARGN 4731 ARG  ARG  AR     0.000000        39.9480           0
    4732 ARGN 4732 ARG  ARG  AR     0.000000        39.9480           0
    4733 ARGN 4733 ARG  ARG  AR     0.000000        39.9480           0
    4734 ARGN 4734 ARG  ARG  AR     0.000000        39.9480           0
    4735 ARGN 4735 ARG  ARG  AR     0.000000        39.9480           0
    4736 ARGN 4736 ARG  ARG  AR     0.000000        39.9480           0
    4737 ARGN 4737 ARG  ARG  AR     0.000000        39.9480           0
    4738 ARGN 4738 ARG  ARG  AR     0.000000        39.9480           0
    4739 ARGN 4739 ARG  ARG  AR     0.000000        39.9480           0
    4740 ARGN 4740 ARG  ARG  AR     0.000000        39.9480           0
    4741 ARGN 4741 ARG  ARG  AR     0.000000        39.9480           0
    4742 ARGN 4742 ARG  ARG  AR     0.000000        39.9480           0
    4743 ARGN 4743 ARG  ARG  AR     0.000000        39.9480           0
    4744 ARGN 4744 ARG  ARG  AR     0.000000        39.9480           0
    4745 ARGN 4745 ARG  ARG  AR     0.000000        39.9480           0
    4746 ARGN 4746 ARG  ARG  AR     0.000000        39.9480           0
    4747 ARGN 4747 ARG  ARG  AR     0.000000        39.9480           0
    4748 ARGN 4748 ARG  ARG  AR     0.000000        39.9480           0
    4749 ARGN 4749 ARG  ARG  AR     0.000000        39.9480           0
    4750 ARGN 4750 ARG  ARG  AR     0.000000        39.9480           0
    4751 ARGN 4751 ARG  ARG  AR     0.000000        39.9480           0
    4752 ARGN 4752 ARG  ARG  AR     0.000000        39.9480           0
    4753 ARGN 4753 ARG  ARG  AR     0.000000        39.9480           0
    4754 ARGN 4754 ARG  ARG  AR     0.000000        39.9480           0
    4755 ARGN 4755 ARG  ARG  AR     0.000000        39.9480           0
    4756 ARGN 4756 ARG  ARG  AR     0.000000        39.9480           0
    4757 ARGN 4757 ARG  ARG  AR     0.000000        39.9480           0
    4758 ARGN 4758 ARG  ARG  AR     0.000000        39.9480           0
    4759 ARGN 4759 ARG  ARG  AR     0.000000        39.9480           0
    4760 ARGN 4760 ARG  ARG  AR     0.000000        39.9480           0
    4761 ARGN 4761 ARG  ARG  AR     0.000000        39.9480           0
    4762 ARGN 4762 ARG  ARG  AR     0.000000        39.9480           0
    4763 ARGN 4763 ARG  ARG  AR     0.000000        39.9480           0
    4764 ARGN 4764 ARG  ARG  AR     0.000000        39.9480           0
    4765 ARGN 4765 ARG  ARG  AR     0.000000        39.9480           0
    4766 ARGN 4766 ARG  ARG  AR     0.000000        39.9480           0
    4767 ARGN 4767 ARG  ARG  AR     0.000000        39.9480           0
    4768 ARGN 4768 ARG  ARG  AR     0.000000        39.9480           0
    4769 ARGN 4769 ARG  ARG  AR     0.000000        39.9480           0
    4770 ARGN 4770 ARG  ARG  AR     0.000000        39.9480           0
    4771 ARGN 4771 ARG  ARG  AR     0.000000        39.9480           0
    4772 ARGN 4772 ARG  ARG  AR     0.000000        39.9480           0
    4773 ARGN 4773 ARG  ARG  AR     0.000000        39.9480           0
    4774 ARGN 4774 ARG  ARG  AR     0.000000        39.9480           0
    4775 ARGN 4775 ARG  ARG  AR     0.000000        39.9480           0
    4776 ARGN 4776 ARG  ARG  AR     0.000000        39.9480           0
    4777 ARGN 4777 ARG  ARG  AR     0.000000        39.9480           0
    4778 ARGN 4778 ARG  ARG  AR     0.000000        39.9480           0
    4779 ARGN 4779 ARG  ARG  AR     0.000000        39.9480           0
    4780 ARGN 4780 ARG  ARG  AR     0.000000        39.9480           0
    4781 ARGN 4781 ARG  ARG  AR     0.000000        39.9480           0
    4782 ARGN 4782 ARG  ARG  AR     0.000000        39.9480           0
    4783 ARGN 4783 ARG  ARG  AR     0.000000        39.9480           0
    4784 ARGN 4784 ARG  ARG  AR     0.000000        39.9480           0
    4785 ARGN 4785 ARG  ARG  AR     0.000000        39.9480           0
    4786 ARGN 4786 ARG  ARG  AR     0.000000        39.9480           0
    4787 ARGN 4787 ARG  ARG  AR     0.000000        39.9480           0
    4788 ARGN 4788 ARG  ARG  AR     0.000000        39.9480           0
    4789 ARGN 4789 ARG  ARG  AR     0.000000        39.9480           0
    4790 ARGN 4790 ARG  ARG  AR     0.000000        39.9480           0
    4791 ARGN 4791 ARG  ARG  AR     0.000000        39.9480           0
    4792 ARGN 4792 ARG  ARG  AR     0.000000        39.9480           0
    4793 ARGN 4793 ARG  ARG  AR     0.000000        39.9480           0
    4794 ARGN 4794 ARG  ARG  AR     0.000000        39.9480           0
    4795 ARGN 4795 ARG  ARG  AR     0.000000        39.9480           0
    4796 ARGN 4796 ARG  ARG  AR     0.000000        39.9480           0
    4797 ARGN 4797 ARG  ARG  AR     0.000000        39.9480           0
    4798 ARGN 4798 ARG  ARG  AR     0.000000        39.9480           0
    4799 ARGN 4799 ARG  ARG  AR     0.000000        39.9480           0
    4800 ARGN 4800 ARG  ARG  AR     0.000000        39.9480           0
    4801 ARGN 4801 ARG  ARG  AR     0.000000        39.9480           0
    4802 ARGN 4802 ARG  ARG  AR     0.000000        39.9480           0
    4803 ARGN 4803 ARG  ARG  AR     0.000000        39.9480           0
    4804 ARGN 4804 ARG  ARG  AR     0.000000        39.9480           0
    4805 ARGN 4805 ARG  ARG  AR     0.000000        39.9480           0
    4806 ARGN 4806 ARG  ARG  AR     0.000000        39.9480           0
    4807 ARGN 4807 ARG  ARG  AR     0.000000        39.9480           0
    4808 ARGN 4808 ARG  ARG  AR     0.000000        39.9480           0
    4809 ARGN 4809 ARG  ARG  AR     0.000000        39.9480           0
    4810 ARGN 4810 ARG  ARG  AR     0.000000        39.9480           0
    4811 ARGN 4811 ARG  ARG  AR     0.000000        39.9480           0
    4812 ARGN 4812 ARG  ARG  AR     0.000000        39.9480           0
    4813 ARGN 4813 ARG  ARG  AR     0.000000        39.9480           0
    4814 ARGN 4814 ARG  ARG  AR     0.000000        39.9480           0
    4815 ARGN 4815 ARG  ARG  AR     0.000000        39.9480           0
    4816 ARGN 4816 ARG  ARG  AR     0.000000        39.9480           0
    4817 ARGN 4817 ARG  ARG  AR     0.000000        39.9480           0
    4818 ARGN 4818 ARG  ARG  AR     0.000000        39.9480           0
    4819 ARGN 4819 ARG  ARG  AR     0.000000        39.9480           0
    4820 ARGN 4820 ARG  ARG  AR     0.000000        39.9480           0
    4821 ARGN 4821 ARG  ARG  AR     0.000000        39.9480           0
    4822 ARGN 4822 ARG  ARG  AR     0.000000        39.9480           0
    4823 ARGN 4823 ARG  ARG  AR     0.000000        39.9480           0
    4824 ARGN 4824 ARG  ARG  AR     0.000000        39.9480           0
    4825 ARGN 4825 ARG  ARG  AR     0.000000        39.9480           0
    4826 ARGN 4826 ARG  ARG  AR     0.000000        39.9480           0
    4827 ARGN 4827 ARG  ARG  AR     0.000000        39.9480           0
    4828 ARGN 4828 ARG  ARG  AR     0.000000        39.9480           0
    4829 ARGN 4829 ARG  ARG  AR     0.000000        39.9480           0
    4830 ARGN 4830 ARG  ARG  AR     0.000000        39.9480           0
    4831 ARGN 4831 ARG  ARG  AR     0.000000        39.9480           0
    4832 ARGN 4832 ARG  ARG  AR     0.000000        39.9480           0
    4833 ARGN 4833 ARG  ARG  AR     0.000000        39.9480           0
    4834 ARGN 4834 ARG  ARG  AR     0.000000        39.9480           0
    4835 ARGN 4835 ARG  ARG  AR     0.000000        39.9480           0
    4836 ARGN 4836 ARG  ARG  AR     0.000000        39.9480           0
    4837 ARGN 4837 ARG  ARG  AR     0.000000        39.9480           0
    4838 ARGN 4838 ARG  ARG  AR     0.000000        39.9480           0
    4839 ARGN 4839 ARG  ARG  AR     0.000000        39.9480           0
    4840 ARGN 4840 ARG  ARG  AR     0.000000        39.9480           0
    4841 ARGN 4841 ARG  ARG  AR     0.000000        39.9480           0
    4842 ARGN 4842 ARG  ARG  AR     0.000000        39.9480           0
    4843 ARGN 4843 ARG  ARG  AR     0.000000        39.9480           0
    4844 ARGN 4844 ARG  ARG  AR     0.000000        39.9480           0
    4845 ARGN 4845 ARG  ARG  AR     0.000000        39.9480           0
    4846 ARGN 4846 ARG  ARG  AR     0.000000        39.9480           0
    4847 ARGN 4847 ARG  ARG  AR     0.000000        39.9480           0
    4848 ARGN 4848 ARG  ARG  AR     0.000000        39.9480           0
    4849 ARGN 4849 ARG  ARG  AR     0.000000        39.9480           0
    4850 ARGN 4850 ARG  ARG  AR     0.000000        39.9480           0
    4851 ARGN 4851 ARG  ARG  AR     0.000000        39.9480           0
    4852 ARGN 4852 ARG  ARG  AR     0.000000        39.9480           0
    4853 ARGN 4853 ARG  ARG  AR     0.000000        39.9480           0
    4854 ARGN 4854 ARG  ARG  AR     0.000000        39.9480           0
    4855 ARGN 4855 ARG  ARG  AR     0.000000        39.9480           0
    4856 ARGN 4856 ARG  ARG  AR     0.000000        39.9480           0
    4857 ARGN 4857 ARG  ARG  AR     0.000000        39.9480           0
    4858 ARGN 4858 ARG  ARG  AR     0.000000        39.9480           0
    4859 ARGN 4859 ARG  ARG  AR     0.000000        39.9480           0
    4860 ARGN 4860 ARG  ARG  AR     0.000000        39.9480           0
    4861 ARGN 4861 ARG  ARG  AR     0.000000        39.9480           0
    4862 ARGN 4862 ARG  ARG  AR     0.000000        39.9480           0
    4863 ARGN 4863 ARG  ARG  AR     0.000000        39.9480           0
    4864 ARGN 4864 ARG  ARG  AR     0.000000        39.9480           0
    4865 ARGN 4865 ARG  ARG  AR     0.000000        39.9480           0
    4866 ARGN 4866 ARG  ARG  AR     0.000000        39.9480           0
    4867 ARGN 4867 ARG  ARG  AR     0.000000        39.9480           0
    4868 ARGN 4868 ARG  ARG  AR     0.000000        39.9480           0
    4869 ARGN 4869 ARG  ARG  AR     0.000000        39.9480           0
    4870 ARGN 4870 ARG  ARG  AR     0.000000        39.9480           0
    4871 ARGN 4871 ARG  ARG  AR     0.000000        39.9480           0
    4872 ARGN 4872 ARG  ARG  AR     0.000000        39.9480           0
    4873 ARGN 4873 ARG  ARG  AR     0.000000        39.9480           0
    4874 ARGN 4874 ARG  ARG  AR     0.000000        39.9480           0
    4875 ARGN 4875 ARG  ARG  AR     0.000000        39.9480           0
    4876 ARGN 4876 ARG  ARG  AR     0.000000        39.9480           0
    4877 ARGN 4877 ARG  ARG  AR     0.000000        39.9480           0
    4878 ARGN 4878 ARG  ARG  AR     0.000000        39.9480           0
    4879 ARGN 4879 ARG  ARG  AR     0.000000        39.9480           0
    4880 ARGN 4880 ARG  ARG  AR     0.000000        39.9480           0
    4881 ARGN 4881 ARG  ARG  AR     0.000000        39.9480           0
    4882 ARGN 4882 ARG  ARG  AR     0.000000        39.9480           0
    4883 ARGN 4883 ARG  ARG  AR     0.000000        39.9480           0
    4884 ARGN 4884 ARG  ARG  AR     0.000000        39.9480           0
    4885 ARGN 4885 ARG  ARG  AR     0.000000        39.9480           0
    4886 ARGN 4886 ARG  ARG  AR     0.000000        39.9480           0
    4887 ARGN 4887 ARG  ARG  AR     0.000000        39.9480           0
    4888 ARGN 4888 ARG  ARG  AR     0.000000        39.9480           0
    4889 ARGN 4889 ARG  ARG  AR     0.000000        39.9480           0
    4890 ARGN 4890 ARG  ARG  AR     0.000000        39.9480           0
    4891 ARGN 4891 ARG  ARG  AR     0.000000        39.9480           0
    4892 ARGN 4892 ARG  ARG  AR     0.000000        39.9480           0
    4893 ARGN 4893 ARG  ARG  AR     0.000000        39.9480           0
    4894 ARGN 4894 ARG  ARG  AR     0.000000        39.9480           0
    4895 ARGN 4895 ARG  ARG  AR     0.000000        39.9480           0
    4896 ARGN 4896 ARG  ARG  AR     0.000000        39.9480           0
    4897 ARGN 4897 ARG  ARG  AR     0.000000        39.9480           0
    4898 ARGN 4898 ARG  ARG  AR     0.000000        39.9480           0
    4899 ARGN 4899 ARG  ARG  AR     0.000000        39.9480           0
    4900 ARGN 4900 ARG  ARG  AR     0.000000        39.9480           0
    4901 ARGN 4901 ARG  ARG  AR     0.000000        39.9480           0
    4902 ARGN 4902 ARG  ARG  AR     0.000000        39.9480           0
    4903 ARGN 4903 ARG  ARG  AR     0.000000        39.9480           0
    4904 ARGN 4904 ARG  ARG  AR     0.000000        39.9480           0
    4905 ARGN 4905 ARG  ARG  AR     0.000000        39.9480           0
    4906 ARGN 4906 ARG  ARG  AR     0.000000        39.9480           0
    4907 ARGN 4907 ARG  ARG  AR     0.000000        39.9480           0
    4908 ARGN 4908 ARG  ARG  AR     0.000000        39.9480           0
    4909 ARGN 4909 ARG  ARG  AR     0.000000        39.9480           0
    4910 ARGN 4910 ARG  ARG  AR     0.000000        39.9480           0
    4911 ARGN 4911 ARG  ARG  AR     0.000000        39.9480           0
    4912 ARGN 4912 ARG  ARG  AR     0.000000        39.9480           0
    4913 ARGN 4913 ARG  ARG  AR     0.000000        39.9480           0
    4914 ARGN 4914 ARG  ARG  AR     0.000000        39.9480           0
    4915 ARGN 4915 ARG  ARG  AR     0.000000        39.9480           0
    4916 ARGN 4916 ARG  ARG  AR     0.000000        39.9480           0
    4917 ARGN 4917 ARG  ARG  AR     0.000000        39.9480           0
    4918 ARGN 4918 ARG  ARG  AR     0.000000        39.9480           0
    4919 ARGN 4919 ARG  ARG  AR     0.000000        39.9480           0
    4920 ARGN 4920 ARG  ARG  AR     0.000000        39.9480           0
    4921 ARGN 4921 ARG  ARG  AR     0.000000        39.9480           0
    4922 ARGN 4922 ARG  ARG  AR     0.000000        39.9480           0
    4923 ARGN 4923 ARG  ARG  AR     0.000000        39.9480           0
    4924 ARGN 4924 ARG  ARG  AR     0.000000        39.9480           0
    4925 ARGN 4925 ARG  ARG  AR     0.000000        39.9480           0
    4926 ARGN 4926 ARG  ARG  AR     0.000000        39.9480           0
    4927 ARGN 4927 ARG  ARG  AR     0.000000        39.9480           0
    4928 ARGN 4928 ARG  ARG  AR     0.000000        39.9480           0
    4929 ARGN 4929 ARG  ARG  AR     0.000000        39.9480           0
    4930 ARGN 4930 ARG  ARG  AR     0.000000        39.9480           0
    4931 ARGN 4931 ARG  ARG  AR     0.000000        39.9480           0
    4932 ARGN 4932 ARG  ARG  AR     0.000000        39.9480           0
    4933 ARGN 4933 ARG  ARG  AR     0.000000        39.9480           0
    4934 ARGN 4934 ARG  ARG  AR     0.000000        39.9480           0
    4935 ARGN 4935 ARG  ARG  AR     0.000000        39.9480           0
    4936 ARGN 4936 ARG  ARG  AR     0.000000        39.9480           0
    4937 ARGN 4937 ARG  ARG  AR     0.000000        39.9480           0
    4938 ARGN 4938 ARG  ARG  AR     0.000000        39.9480           0
    4939 ARGN 4939 ARG  ARG  AR     0.000000        39.9480           0
    4940 ARGN 4940 ARG  ARG  AR     0.000000        39.9480           0
    4941 ARGN 4941 ARG  ARG  AR     0.000000        39.9480           0
    4942 ARGN 4942 ARG  ARG  AR     0.000000        39.9480           0
    4943 ARGN 4943 ARG  ARG  AR     0.000000        39.9480           0
    4944 ARGN 4944 ARG  ARG  AR     0.000000        39.9480           0
    4945 ARGN 4945 ARG  ARG  AR     0.000000        39.9480           0
    4946 ARGN 4946 ARG  ARG  AR     0.000000        39.9480           0
    4947 ARGN 4947 ARG  ARG  AR     0.000000        39.9480           0
    4948 ARGN 4948 ARG  ARG  AR     0.000000        39.9480           0
    4949 ARGN 4949 ARG  ARG  AR     0.000000        39.9480           0
    4950 ARGN 4950 ARG  ARG  AR     0.000000        39.9480           0
    4951 ARGN 4951 ARG  ARG  AR     0.000000        39.9480           0
    4952 ARGN 4952 ARG  ARG  AR     0.000000        39.9480           0
    4953 ARGN 4953 ARG  ARG  AR     0.000000        39.9480           0
    4954 ARGN 4954 ARG  ARG  AR     0.000000        39.9480           0
    4955 ARGN 4955 ARG  ARG  AR     0.000000        39.9480           0
    4956 ARGN 4956 ARG  ARG  AR     0.000000        39.9480           0
    4957 ARGN 4957 ARG  ARG  AR     0.000000        39.9480           0
    4958 ARGN 4958 ARG  ARG  AR     0.000000        39.9480           0
    4959 ARGN 4959 ARG  ARG  AR     0.000000        39.9480           0
    4960 ARGN 4960 ARG  ARG  AR     0.000000        39.9480           0
    4961 ARGN 4961 ARG  ARG  AR     0.000000        39.9480           0
    4962 ARGN 4962 ARG  ARG  AR     0.000000        39.9480           0
    4963 ARGN 4963 ARG  ARG  AR     0.000000        39.9480           0
    4964 ARGN 4964 ARG  ARG  AR     0.000000        39.9480           0
    4965 ARGN 4965 ARG  ARG  AR     0.000000        39.9480           0
    4966 ARGN 4966 ARG  ARG  AR     0.000000        39.9480           0
    4967 ARGN 4967 ARG  ARG  AR     0.000000        39.9480           0
    4968 ARGN 4968 ARG  ARG  AR     0.000000        39.9480           0
    4969 ARGN 4969 ARG  ARG  AR     0.000000        39.9480           0
    4970 ARGN 4970 ARG  ARG  AR     0.000000        39.9480           0
    4971 ARGN 4971 ARG  ARG  AR     0.000000        39.9480           0
    4972 ARGN 4972 ARG  ARG  AR     0.000000        39.9480           0
    4973 ARGN 4973 ARG  ARG  AR     0.000000        39.9480           0
    4974 ARGN 4974 ARG  ARG  AR     0.000000        39.9480           0
    4975 ARGN 4975 ARG  ARG  AR     0.000000        39.9480           0
    4976 ARGN 4976 ARG  ARG  AR     0.000000        39.9480           0
    4977 ARGN 4977 ARG  ARG  AR     0.000000        39.9480           0
    4978 ARGN 4978 ARG  ARG  AR     0.000000        39.9480           0
    4979 ARGN 4979 ARG  ARG  AR     0.000000        39.9480           0
    4980 ARGN 4980 ARG  ARG  AR     0.000000        39.9480           0
    4981 ARGN 4981 ARG  ARG  AR     0.000000        39.9480           0
    4982 ARGN 4982 ARG  ARG  AR     0.000000        39.9480           0
    4983 ARGN 4983 ARG  ARG  AR     0.000000        39.9480           0
    4984 ARGN 4984 ARG  ARG  AR     0.000000        39.9480           0
    4985 ARGN 4985 ARG  ARG  AR     0.000000        39.9480           0
    4986 ARGN 4986 ARG  ARG  AR     0.000000        39.9480           0
    4987 ARGN 4987 ARG  ARG  AR     0.000000        39.9480           0
    4988 ARGN 4988 ARG  ARG  AR     0.000000        39.9480           0
    4989 ARGN 4989 ARG  ARG  AR     0.000000        39.9480           0
    4990 ARGN 4990 ARG  ARG  AR     0.000000        39.9480           0
    4991 ARGN 4991 ARG  ARG  AR     0.000000        39.9480           0
    4992 ARGN 4992 ARG  ARG  AR     0.000000        39.9480           0
    4993 ARGN 4993 ARG  ARG  AR     0.000000        39.9480           0
    4994 ARGN 4994 ARG  ARG  AR     0.000000        39.9480           0
    4995 ARGN 4995 ARG  ARG  AR     0.000000        39.9480           0
    4996 ARGN 4996 ARG  ARG  AR     0.000000        39.9480           0
    4997 ARGN 4997 ARG  ARG  AR     0.000000        39.9480           0
    4998 ARGN 4998 ARG  ARG  AR     0.000000        39.9480           0
    4999 ARGN 4999 ARG  ARG  AR     0.000000        39.9480           0
    5000 ARGN 5000 ARG  ARG  AR     0.000000        39.9480           0
    5001 ARGN 5001 ARG  ARG  AR     0.000000        39.9480           0
    5002 ARGN 5002 ARG  ARG  AR     0.000000        39.9480           0
    5003 ARGN 5003 ARG  ARG  AR     0.000000        39.9480           0
    5004 ARGN 5004 ARG  ARG  AR     0.000000        39.9480           0
    5005 ARGN 5005 ARG  ARG  AR     0.000000        39.9480           0
    5006 ARGN 5006 ARG  ARG  AR     0.000000        39.9480           0
    5007 ARGN 5007 ARG  ARG  AR     0.000000        39.9480           0
    5008 ARGN 5008 ARG  ARG  AR     0.000000        39.9480           0
    5009 ARGN 5009 ARG  ARG  AR     0.000000        39.9480           0
    5010 ARGN 5010 ARG  ARG  AR     0.000000        39.9480           0
    5011 ARGN 5011 ARG  ARG  AR     0.000000        39.9480           0
    5012 ARGN 5012 ARG  ARG  AR     0.000000        39.9480           0
    5013 ARGN 5013 ARG  ARG  AR     0.000000        39.9480           0
    5014 ARGN 5014 ARG  ARG  AR     0.000000        39.9480           0
    5015 ARGN 5015 ARG  ARG  AR     0.000000        39.9480           0
    5016 ARGN 5016 ARG  ARG  AR     0.000000        39.9480           0
    5017 ARGN 5017 ARG  ARG  AR     0.000000        39.9480           0
    5018 ARGN 5018 ARG  ARG  AR     0.000000        39.9480           0
    5019 ARGN 5019 ARG  ARG  AR     0.000000        39.9480           0
    5020 ARGN 5020 ARG  ARG  AR     0.000000        39.9480           0
    5021 ARGN 5021 ARG  ARG  AR     0.000000        39.9480           0
    5022 ARGN 5022 ARG  ARG  AR     0.000000        39.9480           0
    5023 ARGN 5023 ARG  ARG  AR     0.000000        39.9480           0
    5024 ARGN 5024 ARG  ARG  AR     0.000000        39.9480           0
    5025 ARGN 5025 ARG  ARG  AR     0.000000        39.9480           0
    5026 ARGN 5026 ARG  ARG  AR     0.000000        39.9480           0
    5027 ARGN 5027 ARG  ARG  AR     0.000000        39.9480           0
    5028 ARGN 5028 ARG  ARG  AR     0.000000        39.9480           0
    5029 ARGN 5029 ARG  ARG  AR     0.000000        39.9480           0
    5030 ARGN 5030 ARG  ARG  AR     0.000000        39.9480           0
    5031 ARGN 5031 ARG  ARG  AR     0.000000        39.9480           0
    5032 ARGN 5032 ARG  ARG  AR     0.000000        39.9480           0
    5033 ARGN 5033 ARG  ARG  AR     0.000000        39.9480           0
    5034 ARGN 5034 ARG  ARG  AR     0.000000        39.9480           0
    5035 ARGN 5035 ARG  ARG  AR     0.000000        39.9480           0
    5036 ARGN 5036 ARG  ARG  AR     0.000000        39.9480           0
    5037 ARGN 5037 ARG  ARG  AR     0.000000        39.9480           0
    5038 ARGN 5038 ARG  ARG  AR     0.000000        39.9480           0
    5039 ARGN 5039 ARG  ARG  AR     0.000000        39.9480           0
    5040 ARGN 5040 ARG  ARG  AR     0.000000        39.9480           0
    5041 ARGN 5041 ARG  ARG  AR     0.000000        39.9480           0
    5042 ARGN 5042 ARG  ARG  AR     0.000000        39.9480           0
    5043 ARGN 5043 ARG  ARG  AR     0.000000        39.9480           0
    5044 ARGN 5044 ARG  ARG  AR     0.000000        39.9480           0
    5045 ARGN 5045 ARG  ARG  AR     0.000000        39.9480           0
    5046 ARGN 5046 ARG  ARG  AR     0.000000        39.9480           0
    5047 ARGN 5047 ARG  ARG  AR     0.000000        39.9480           0
    5048 ARGN 5048 ARG  ARG  AR     0.000000        39.9480           0
    5049 ARGN 5049 ARG  ARG  AR     0.000000        39.9480           0
    5050 ARGN 5050 ARG  ARG  AR     0.000000        39.9480           0
    5051 ARGN 5051 ARG  ARG  AR     0.000000        39.9480           0
    5052 ARGN 5052 ARG  ARG  AR     0.000000        39.9480           0
    5053 ARGN 5053 ARG  ARG  AR     0.000000        39.9480           0
    5054 ARGN 5054 ARG  ARG  AR     0.000000        39.9480           0
    5055 ARGN 5055 ARG  ARG  AR     0.000000        39.9480           0
    5056 ARGN 5056 ARG  ARG  AR     0.000000        39.9480           0
    5057 ARGN 5057 ARG  ARG  AR     0.000000        39.9480           0
    5058 ARGN 5058 ARG  ARG  AR     0.000000        39.9480           0
    5059 ARGN 5059 ARG  ARG  AR     0.000000        39.9480           0
    5060 ARGN 5060 ARG  ARG  AR     0.000000        39.9480           0
    5061 ARGN 5061 ARG  ARG  AR     0.000000        39.9480           0
    5062 ARGN 5062 ARG  ARG  AR     0.000000        39.9480           0
    5063 ARGN 5063 ARG  ARG  AR     0.000000        39.9480           0
    5064 ARGN 5064 ARG  ARG  AR     0.000000        39.9480           0
    5065 ARGN 5065 ARG  ARG  AR     0.000000        39.9480           0
    5066 ARGN 5066 ARG  ARG  AR     0.000000        39.9480           0
    5067 ARGN 5067 ARG  ARG  AR     0.000000        39.9480           0
    5068 ARGN 5068 ARG  ARG  AR     0.000000        39.9480           0
    5069 ARGN 5069 ARG  ARG  AR     0.000000        39.9480           0
    5070 ARGN 5070 ARG  ARG  AR     0.000000        39.9480           0
    5071 ARGN 5071 ARG  ARG  AR     0.000000        39.9480           0
    5072 ARGN 5072 ARG  ARG  AR     0.000000        39.9480           0
    5073 ARGN 5073 ARG  ARG  AR     0.000000        39.9480           0
    5074 ARGN 5074 ARG  ARG  AR     0.000000        39.9480           0
    5075 ARGN 5075 ARG  ARG  AR     0.000000        39.9480           0
    5076 ARGN 5076 ARG  ARG  AR     0.000000        39.9480           0
    5077 ARGN 5077 ARG  ARG  AR     0.000000        39.9480           0
    5078 ARGN 5078 ARG  ARG  AR     0.000000        39.9480           0
    5079 ARGN 5079 ARG  ARG  AR     0.000000        39.9480           0
    5080 ARGN 5080 ARG  ARG  AR     0.000000        39.9480           0
    5081 ARGN 5081 ARG  ARG  AR     0.000000        39.9480           0
    5082 ARGN 5082 ARG  ARG  AR     0.000000        39.9480           0
    5083 ARGN 5083 ARG  ARG  AR     0.000000        39.9480           0
    5084 ARGN 5084 ARG  ARG  AR     0.000000        39.9480           0
    5085 ARGN 5085 ARG  ARG  AR     0.000000        39.9480           0
    5086 ARGN 5086 ARG  ARG  AR     0.000000        39.9480           0
    5087 ARGN 5087 ARG  ARG  AR     0.000000        39.9480           0
    5088 ARGN 5088 ARG  ARG  AR     0.000000        39.9480           0
    5089 ARGN 5089 ARG  ARG  AR     0.000000        39.9480           0
    5090 ARGN 5090 ARG  ARG  AR     0.000000        39.9480           0
    5091 ARGN 5091 ARG  ARG  AR     0.000000        39.9480           0
    5092 ARGN 5092 ARG  ARG  AR     0.000000        39.9480           0
    5093 ARGN 5093 ARG  ARG  AR     0.000000        39.9480           0
    5094 ARGN 5094 ARG  ARG  AR     0.000000        39.9480           0
    5095 ARGN 5095 ARG  ARG  AR     0.000000        39.9480           0
    5096 ARGN 5096 ARG  ARG  AR     0.000000        39.9480           0
    5097 ARGN 5097 ARG  ARG  AR     0.000000        39.9480           0
    5098 ARGN 5098 ARG  ARG  AR     0.000000        39.9480           0
    5099 ARGN 5099 ARG  ARG  AR     0.000000        39.9480           0
    5100 ARGN 5100 ARG  ARG  AR     0.000000        39.9480           0
    5101 ARGN 5101 ARG  ARG  AR     0.000000        39.9480           0
    5102 ARGN 5102 ARG  ARG  AR     0.000000        39.9480           0
    5103 ARGN 5103 ARG  ARG  AR     0.000000        39.9480           0
    5104 ARGN 5104 ARG  ARG  AR     0.000000        39.9480           0
    5105 ARGN 5105 ARG  ARG  AR     0.000000        39.9480           0
    5106 ARGN 5106 ARG  ARG  AR     0.000000        39.9480           0
    5107 ARGN 5107 ARG  ARG  AR     0.000000        39.9480           0
    5108 ARGN 5108 ARG  ARG  AR     0.000000        39.9480           0
    5109 ARGN 5109 ARG  ARG  AR     0.000000        39.9480           0
    5110 ARGN 5110 ARG  ARG  AR     0.000000        39.9480           0
    5111 ARGN 5111 ARG  ARG  AR     0.000000        39.9480           0
    5112 ARGN 5112 ARG  ARG  AR     0.000000        39.9480           0
    5113 ARGN 5113 ARG  ARG  AR     0.000000        39.9480           0
    5114 ARGN 5114 ARG  ARG  AR     0.000000        39.9480           0
    5115 ARGN 5115 ARG  ARG  AR     0.000000        39.9480           0
    5116 ARGN 5116 ARG  ARG  AR     0.000000        39.9480           0
    5117 ARGN 5117 ARG  ARG  AR     0.000000        39.9480           0
    5118 ARGN 5118 ARG  ARG  AR     0.000000        39.9480           0
    5119 ARGN 5119 ARG  ARG  AR     0.000000        39.9480           0
    5120 ARGN 5120 ARG  ARG  AR     0.000000        39.9480           0
    5121 ARGN 5121 ARG  ARG  AR     0.000000        39.9480           0
    5122 ARGN 5122 ARG  ARG  AR     0.000000        39.9480           0
    5123 ARGN 5123 ARG  ARG  AR     0.000000        39.9480           0
    5124 ARGN 5124 ARG  ARG  AR     0.000000        39.9480           0
    5125 ARGN 5125 ARG  ARG  AR     0.000000        39.9480           0
    5126 ARGN 5126 ARG  ARG  AR     0.000000        39.9480           0
    5127 ARGN 5127 ARG  ARG  AR     0.000000        39.9480           0
    5128 ARGN 5128 ARG  ARG  AR     0.000000        39.9480           0
    5129 ARGN 5129 ARG  ARG  AR     0.000000        39.9480           0
    5130 ARGN 5130 ARG  ARG  AR     0.000000        39.9480           0
    5131 ARGN 5131 ARG  ARG  AR     0.000000        39.9480           0
    5132 ARGN 5132 ARG  ARG  AR     0.000000        39.9480           0
    5133 ARGN 5133 ARG  ARG  AR     0.000000        39.9480           0
    5134 ARGN 5134 ARG  ARG  AR     0.000000        39.9480           0
    5135 ARGN 5135 ARG  ARG  AR     0.000000        39.9480           0
    5136 ARGN 5136 ARG  ARG  AR     0.000000        39.9480           0
    5137 ARGN 5137 ARG  ARG  AR     0.000000        39.9480           0
    5138 ARGN 5138 ARG  ARG  AR     0.000000        39.9480           0
    5139 ARGN 5139 ARG  ARG  AR     0.000000        39.9480           0
    5140 ARGN 5140 ARG  ARG  AR     0.000000        39.9480           0
    5141 ARGN 5141 ARG  ARG  AR     0.000000        39.9480           0
    5142 ARGN 5142 ARG  ARG  AR     0.000000        39.9480           0
    5143 ARGN 5143 ARG  ARG  AR     0.000000        39.9480           0
    5144 ARGN 5144 ARG  ARG  AR     0.000000        39.9480           0
    5145 ARGN 5145 ARG  ARG  AR     0.000000        39.9480           0
    5146 ARGN 5146 ARG  ARG  AR     0.000000        39.9480           0
    5147 ARGN 5147 ARG  ARG  AR     0.000000        39.9480           0
    5148 ARGN 5148 ARG  ARG  AR     0.000000        39.9480           0
    5149 ARGN 5149 ARG  ARG  AR     0.000000        39.9480           0
    5150 ARGN 5150 ARG  ARG  AR     0.000000        39.9480           0
    5151 ARGN 5151 ARG  ARG  AR     0.000000        39.9480           0
    5152 ARGN 5152 ARG  ARG  AR     0.000000        39.9480           0
    5153 ARGN 5153 ARG  ARG  AR     0.000000        39.9480           0
    5154 ARGN 5154 ARG  ARG  AR     0.000000        39.9480           0
    5155 ARGN 5155 ARG  ARG  AR     0.000000        39.9480           0
    5156 ARGN 5156 ARG  ARG  AR     0.000000        39.9480           0
    5157 ARGN 5157 ARG  ARG  AR     0.000000        39.9480           0
    5158 ARGN 5158 ARG  ARG  AR     0.000000        39.9480           0
    5159 ARGN 5159 ARG  ARG  AR     0.000000        39.9480           0
    5160 ARGN 5160 ARG  ARG  AR     0.000000        39.9480           0
    5161 ARGN 5161 ARG  ARG  AR     0.000000        39.9480           0
    5162 ARGN 5162 ARG  ARG  AR     0.000000        39.9480           0
    5163 ARGN 5163 ARG  ARG  AR     0.000000        39.9480           0
    5164 ARGN 5164 ARG  ARG  AR     0.000000        39.9480           0
    5165 ARGN 5165 ARG  ARG  AR     0.000000        39.9480           0
    5166 ARGN 5166 ARG  ARG  AR     0.000000        39.9480           0
    5167 ARGN 5167 ARG  ARG  AR     0.000000        39.9480           0
    5168 ARGN 5168 ARG  ARG  AR     0.000000        39.9480           0
    5169 ARGN 5169 ARG  ARG  AR     0.000000        39.9480           0
    5170 ARGN 5170 ARG  ARG  AR     0.000000        39.9480           0
    5171 ARGN 5171 ARG  ARG  AR     0.000000        39.9480           0
    5172 ARGN 5172 ARG  ARG  AR     0.000000        39.9480           0
    5173 ARGN 5173 ARG  ARG  AR     0.000000        39.9480           0
    5174 ARGN 5174 ARG  ARG  AR     0.000000        39.9480           0
    5175 ARGN 5175 ARG  ARG  AR     0.000000        39.9480           0
    5176 ARGN 5176 ARG  ARG  AR     0.000000        39.9480           0
    5177 ARGN 5177 ARG  ARG  AR     0.000000        39.9480           0
    5178 ARGN 5178 ARG  ARG  AR     0.000000        39.9480           0
    5179 ARGN 5179 ARG  ARG  AR     0.000000        39.9480           0
    5180 ARGN 5180 ARG  ARG  AR     0.000000        39.9480           0
    5181 ARGN 5181 ARG  ARG  AR     0.000000        39.9480           0
    5182 ARGN 5182 ARG  ARG  AR     0.000000        39.9480           0
    5183 ARGN 5183 ARG  ARG  AR     0.000000        39.9480           0
    5184 ARGN 5184 ARG  ARG  AR     0.000000        39.9480           0
    5185 ARGN 5185 ARG  ARG  AR     0.000000        39.9480           0
    5186 ARGN 5186 ARG  ARG  AR     0.000000        39.9480           0
    5187 ARGN 5187 ARG  ARG  AR     0.000000        39.9480           0
    5188 ARGN 5188 ARG  ARG  AR     0.000000        39.9480           0
    5189 ARGN 5189 ARG  ARG  AR     0.000000        39.9480           0
    5190 ARGN 5190 ARG  ARG  AR     0.000000        39.9480           0
    5191 ARGN 5191 ARG  ARG  AR     0.000000        39.9480           0
    5192 ARGN 5192 ARG  ARG  AR     0.000000        39.9480           0
    5193 ARGN 5193 ARG  ARG  AR     0.000000        39.9480           0
    5194 ARGN 5194 ARG  ARG  AR     0.000000        39.9480           0
    5195 ARGN 5195 ARG  ARG  AR     0.000000        39.9480           0
    5196 ARGN 5196 ARG  ARG  AR     0.000000        39.9480           0
    5197 ARGN 5197 ARG  ARG  AR     0.000000        39.9480           0
    5198 ARGN 5198 ARG  ARG  AR     0.000000        39.9480           0
    5199 ARGN 5199 ARG  ARG  AR     0.000000        39.9480           0
    5200 ARGN 5200 ARG  ARG  AR     0.000000        39.9480           0
    5201 ARGN 5201 ARG  ARG  AR     0.000000        39.9480           0
    5202 ARGN 5202 ARG  ARG  AR     0.000000        39.9480           0
    5203 ARGN 5203 ARG  ARG  AR     0.000000        39.9480           0
    5204 ARGN 5204 ARG  ARG  AR     0.000000        39.9480           0
    5205 ARGN 5205 ARG  ARG  AR     0.000000        39.9480           0
    5206 ARGN 5206 ARG  ARG  AR     0.000000        39.9480           0
    5207 ARGN 5207 ARG  ARG  AR     0.000000        39.9480           0
    5208 ARGN 5208 ARG  ARG  AR     0.000000        39.9480           0
    5209 ARGN 5209 ARG  ARG  AR     0.000000        39.9480           0
    5210 ARGN 5210 ARG  ARG  AR     0.000000        39.9480           0
    5211 ARGN 5211 ARG  ARG  AR     0.000000        39.9480           0
    5212 ARGN 5212 ARG  ARG  AR     0.000000        39.9480           0
    5213 ARGN 5213 ARG  ARG  AR     0.000000        39.9480           0
    5214 ARGN 5214 ARG  ARG  AR     0.000000        39.9480           0
    5215 ARGN 5215 ARG  ARG  AR     0.000000        39.9480           0
    5216 ARGN 5216 ARG  ARG  AR     0.000000        39.9480           0
    5217 ARGN 5217 ARG  ARG  AR     0.000000        39.9480           0
    5218 ARGN 5218 ARG  ARG  AR     0.000000        39.9480           0
    5219 ARGN 5219 ARG  ARG  AR     0.000000        39.9480           0
    5220 ARGN 5220 ARG  ARG  AR     0.000000        39.9480           0
    5221 ARGN 5221 ARG  ARG  AR     0.000000        39.9480           0
    5222 ARGN 5222 ARG  ARG  AR     0.000000        39.9480           0
    5223 ARGN 5223 ARG  ARG  AR     0.000000        39.9480           0
    5224 ARGN 5224 ARG  ARG  AR     0.000000        39.9480           0
    5225 ARGN 5225 ARG  ARG  AR     0.000000        39.9480           0
    5226 ARGN 5226 ARG  ARG  AR     0.000000        39.9480           0
    5227 ARGN 5227 ARG  ARG  AR     0.000000        39.9480           0
    5228 ARGN 5228 ARG  ARG  AR     0.000000        39.9480           0
    5229 ARGN 5229 ARG  ARG  AR     0.000000        39.9480           0
    5230 ARGN 5230 ARG  ARG  AR     0.000000        39.9480           0
    5231 ARGN 5231 ARG  ARG  AR     0.000000        39.9480           0
    5232 ARGN 5232 ARG  ARG  AR     0.000000        39.9480           0
    5233 ARGN 5233 ARG  ARG  AR     0.000000        39.9480           0
    5234 ARGN 5234 ARG  ARG  AR     0.000000        39.9480           0
    5235 ARGN 5235 ARG  ARG  AR     0.000000        39.9480           0
    5236 ARGN 5236 ARG  ARG  AR     0.000000        39.9480           0
    5237 ARGN 5237 ARG  ARG  AR     0.000000        39.9480           0
    5238 ARGN 5238 ARG  ARG  AR     0.000000        39.9480           0
    5239 ARGN 5239 ARG  ARG  AR     0.000000        39.9480           0
    5240 ARGN 5240 ARG  ARG  AR     0.000000        39.9480           0
    5241 ARGN 5241 ARG  ARG  AR     0.000000        39.9480           0
    5242 ARGN 5242 ARG  ARG  AR     0.000000        39.9480           0
    5243 ARGN 5243 ARG  ARG  AR     0.000000        39.9480           0
    5244 ARGN 5244 ARG  ARG  AR     0.000000        39.9480           0
    5245 ARGN 5245 ARG  ARG  AR     0.000000        39.9480           0
    5246 ARGN 5246 ARG  ARG  AR     0.000000        39.9480           0
    5247 ARGN 5247 ARG  ARG  AR     0.000000        39.9480           0
    5248 ARGN 5248 ARG  ARG  AR     0.000000        39.9480           0
    5249 ARGN 5249 ARG  ARG  AR     0.000000        39.9480           0
    5250 ARGN 5250 ARG  ARG  AR     0.000000        39.9480           0
    5251 ARGN 5251 ARG  ARG  AR     0.000000        39.9480           0
    5252 ARGN 5252 ARG  ARG  AR     0.000000        39.9480           0
    5253 ARGN 5253 ARG  ARG  AR     0.000000        39.9480           0
    5254 ARGN 5254 ARG  ARG  AR     0.000000        39.9480           0
    5255 ARGN 5255 ARG  ARG  AR     0.000000        39.9480           0
    5256 ARGN 5256 ARG  ARG  AR     0.000000        39.9480           0
    5257 ARGN 5257 ARG  ARG  AR     0.000000        39.9480           0
    5258 ARGN 5258 ARG  ARG  AR     0.000000        39.9480           0
    5259 ARGN 5259 ARG  ARG  AR     0.000000        39.9480           0
    5260 ARGN 5260 ARG  ARG  AR     0.000000        39.9480           0
    5261 ARGN 5261 ARG  ARG  AR     0.000000        39.9480           0
    5262 ARGN 5262 ARG  ARG  AR     0.000000        39.9480           0
    5263 ARGN 5263 ARG  ARG  AR     0.000000        39.9480           0
    5264 ARGN 5264 ARG  ARG  AR     0.000000        39.9480           0
    5265 ARGN 5265 ARG  ARG  AR     0.000000        39.9480           0
    5266 ARGN 5266 ARG  ARG  AR     0.000000        39.9480           0
    5267 ARGN 5267 ARG  ARG  AR     0.000000        39.9480           0
    5268 ARGN 5268 ARG  ARG  AR     0.000000        39.9480           0
    5269 ARGN 5269 ARG  ARG  AR     0.000000        39.9480           0
    5270 ARGN 5270 ARG  ARG  AR     0.000000        39.9480           0
    5271 ARGN 5271 ARG  ARG  AR     0.000000        39.9480           0
    5272 ARGN 5272 ARG  ARG  AR     0.000000        39.9480           0
    5273 ARGN 5273 ARG  ARG  AR     0.000000        39.9480           0
    5274 ARGN 5274 ARG  ARG  AR     0.000000        39.9480           0
    5275 ARGN 5275 ARG  ARG  AR     0.000000        39.9480           0
    5276 ARGN 5276 ARG  ARG  AR     0.000000        39.9480           0
    5277 ARGN 5277 ARG  ARG  AR     0.000000        39.9480           0
    5278 ARGN 5278 ARG  ARG  AR     0.000000        39.9480           0
    5279 ARGN 5279 ARG  ARG  AR     0.000000        39.9480           0
    5280 ARGN 5280 ARG  ARG  AR     0.000000        39.9480           0
    5281 ARGN 5281 ARG  ARG  AR     0.000000        39.9480           0
    5282 ARGN 5282 ARG  ARG  AR     0.000000        39.9480           0
    5283 ARGN 5283 ARG  ARG  AR     0.000000        39.9480           0
    5284 ARGN 5284 ARG  ARG  AR     0.000000        39.9480           0
    5285 ARGN 5285 ARG  ARG  AR     0.000000        39.9480           0
    5286 ARGN 5286 ARG  ARG  AR     0.000000        39.9480           0
    5287 ARGN 5287 ARG  ARG  AR     0.000000        39.9480           0
    5288 ARGN 5288 ARG  ARG  AR     0.000000        39.9480           0
    5289 ARGN 5289 ARG  ARG  AR     0.000000        39.9480           0
    5290 ARGN 5290 ARG  ARG  AR     0.000000        39.9480           0
    5291 ARGN 5291 ARG  ARG  AR     0.000000        39.9480           0
    5292 ARGN 5292 ARG  ARG  AR     0.000000        39.9480           0
    5293 ARGN 5293 ARG  ARG  AR     0.000000        39.9480           0
    5294 ARGN 5294 ARG  ARG  AR     0.000000        39.9480           0
    5295 ARGN 5295 ARG  ARG  AR     0.000000        39.9480           0
    5296 ARGN 5296 ARG  ARG  AR     0.000000        39.9480           0
    5297 ARGN 5297 ARG  ARG  AR     0.000000        39.9480           0
    5298 ARGN 5298 ARG  ARG  AR     0.000000        39.9480           0
    5299 ARGN 5299 ARG  ARG  AR     0.000000        39.9480           0
    5300 ARGN 5300 ARG  ARG  AR     0.000000        39.9480           0
    5301 ARGN 5301 ARG  ARG  AR     0.000000        39.9480           0
    5302 ARGN 5302 ARG  ARG  AR     0.000000        39.9480           0
    5303 ARGN 5303 ARG  ARG  AR     0.000000        39.9480           0
    5304 ARGN 5304 ARG  ARG  AR     0.000000        39.9480           0
    5305 ARGN 5305 ARG  ARG  AR     0.000000        39.9480           0
    5306 ARGN 5306 ARG  ARG  AR     0.000000        39.9480           0
    5307 ARGN 5307 ARG  ARG  AR     0.000000        39.9480           0
    5308 ARGN 5308 ARG  ARG  AR     0.000000        39.9480           0
    5309 ARGN 5309 ARG  ARG  AR     0.000000        39.9480           0
    5310 ARGN 5310 ARG  ARG  AR     0.000000        39.9480           0
    5311 ARGN 5311 ARG  ARG  AR     0.000000        39.9480           0
    5312 ARGN 5312 ARG  ARG  AR     0.000000        39.9480           0
    5313 ARGN 5313 ARG  ARG  AR     0.000000        39.9480           0
    5314 ARGN 5314 ARG  ARG  AR     0.000000        39.9480           0
    5315 ARGN 5315 ARG  ARG  AR     0.000000        39.9480           0
    5316 ARGN 5316 ARG  ARG  AR     0.000000        39.9480           0
    5317 ARGN 5317 ARG  ARG  AR     0.000000        39.9480           0
    5318 ARGN 5318 ARG  ARG  AR     0.000000        39.9480           0
    5319 ARGN 5319 ARG  ARG  AR     0.000000        39.9480           0
    5320 ARGN 5320 ARG  ARG  AR     0.000000        39.9480           0
    5321 ARGN 5321 ARG  ARG  AR     0.000000        39.9480           0
    5322 ARGN 5322 ARG  ARG  AR     0.000000        39.9480           0
    5323 ARGN 5323 ARG  ARG  AR     0.000000        39.9480           0
    5324 ARGN 5324 ARG  ARG  AR     0.000000        39.9480           0
    5325 ARGN 5325 ARG  ARG  AR     0.000000        39.9480           0
    5326 ARGN 5326 ARG  ARG  AR     0.000000        39.9480           0
    5327 ARGN 5327 ARG  ARG  AR     0.000000        39.9480           0
    5328 ARGN 5328 ARG  ARG  AR     0.000000        39.9480           0
    5329 ARGN 5329 ARG  ARG  AR     0.000000        39.9480           0
    5330 ARGN 5330 ARG  ARG  AR     0.000000        39.9480           0
    5331 ARGN 5331 ARG  ARG  AR     0.000000        39.9480           0
    5332 ARGN 5332 ARG  ARG  AR     0.000000        39.9480           0
    5333 ARGN 5333 ARG  ARG  AR     0.000000        39.9480           0
    5334 ARGN 5334 ARG  ARG  AR     0.000000        39.9480           0
    5335 ARGN 5335 ARG  ARG  AR     0.000000        39.9480           0
    5336 ARGN 5336 ARG  ARG  AR     0.000000        39.9480           0
    5337 ARGN 5337 ARG  ARG  AR     0.000000        39.9480           0
    5338 ARGN 5338 ARG  ARG  AR     0.000000        39.9480           0
    5339 ARGN 5339 ARG  ARG  AR     0.000000        39.9480           0
    5340 ARGN 5340 ARG  ARG  AR     0.000000        39.9480           0
    5341 ARGN 5341 ARG  ARG  AR     0.000000        39.9480           0
    5342 ARGN 5342 ARG  ARG  AR     0.000000        39.9480           0
    5343 ARGN 5343 ARG  ARG  AR     0.000000        39.9480           0
    5344 ARGN 5344 ARG  ARG  AR     0.000000        39.9480           0
    5345 ARGN 5345 ARG  ARG  AR     0.000000        39.9480           0
    5346 ARGN 5346 ARG  ARG  AR     0.000000        39.9480           0
    5347 ARGN 5347 ARG  ARG  AR     0.000000        39.9480           0
    5348 ARGN 5348 ARG  ARG  AR     0.000000        39.9480           0
    5349 ARGN 5349 ARG  ARG  AR     0.000000        39.9480           0
    5350 ARGN 5350 ARG  ARG  AR     0.000000        39.9480           0
    5351 ARGN 5351 ARG  ARG  AR     0.000000        39.9480           0
    5352 ARGN 5352 ARG  ARG  AR     0.000000        39.9480           0
    5353 ARGN 5353 ARG  ARG  AR     0.000000        39.9480           0
    5354 ARGN 5354 ARG  ARG  AR     0.000000        39.9480           0
    5355 ARGN 5355 ARG  ARG  AR     0.000000        39.9480           0
    5356 ARGN 5356 ARG  ARG  AR     0.000000        39.9480           0
    5357 ARGN 5357 ARG  ARG  AR     0.000000        39.9480           0
    5358 ARGN 5358 ARG  ARG  AR     0.000000        39.9480           0
    5359 ARGN 5359 ARG  ARG  AR     0.000000        39.9480           0
    5360 ARGN 5360 ARG  ARG  AR     0.000000        39.9480           0
    5361 ARGN 5361 ARG  ARG  AR     0.000000        39.9480           0
    5362 ARGN 5362 ARG  ARG  AR     0.000000        39.9480           0
    5363 ARGN 5363 ARG  ARG  AR     0.000000        39.9480           0
    5364 ARGN 5364 ARG  ARG  AR     0.000000        39.9480           0
    5365 ARGN 5365 ARG  ARG  AR     0.000000        39.9480           0
    5366 ARGN 5366 ARG  ARG  AR     0.000000        39.9480           0
    5367 ARGN 5367 ARG  ARG  AR     0.000000        39.9480           0
    5368 ARGN 5368 ARG  ARG  AR     0.000000        39.9480           0
    5369 ARGN 5369 ARG  ARG  AR     0.000000        39.9480           0
    5370 ARGN 5370 ARG  ARG  AR     0.000000        39.9480           0
    5371 ARGN 5371 ARG  ARG  AR     0.000000        39.9480           0
    5372 ARGN 5372 ARG  ARG  AR     0.000000        39.9480           0
    5373 ARGN 5373 ARG  ARG  AR     0.000000        39.9480           0
    5374 ARGN 5374 ARG  ARG  AR     0.000000        39.9480           0
    5375 ARGN 5375 ARG  ARG  AR     0.000000        39.9480           0
    5376 ARGN 5376 ARG  ARG  AR     0.000000        39.9480           0
    5377 ARGN 5377 ARG  ARG  AR     0.000000        39.9480           0
    5378 ARGN 5378 ARG  ARG  AR     0.000000        39.9480           0
    5379 ARGN 5379 ARG  ARG  AR     0.000000        39.9480           0
    5380 ARGN 5380 ARG  ARG  AR     0.000000        39.9480           0
    5381 ARGN 5381 ARG  ARG  AR     0.000000        39.9480           0
    5382 ARGN 5382 ARG  ARG  AR     0.000000        39.9480           0
    5383 ARGN 5383 ARG  ARG  AR     0.000000        39.9480           0
    5384 ARGN 5384 ARG  ARG  AR     0.000000        39.9480           0
    5385 ARGN 5385 ARG  ARG  AR     0.000000        39.9480           0
    5386 ARGN 5386 ARG  ARG  AR     0.000000        39.9480           0
    5387 ARGN 5387 ARG  ARG  AR     0.000000        39.9480           0
    5388 ARGN 5388 ARG  ARG  AR     0.000000        39.9480           0
    5389 ARGN 5389 ARG  ARG  AR     0.000000        39.9480           0
    5390 ARGN 5390 ARG  ARG  AR     0.000000        39.9480           0
    5391 ARGN 5391 ARG  ARG  AR     0.000000        39.9480           0
    5392 ARGN 5392 ARG  ARG  AR     0.000000        39.9480           0
    5393 ARGN 5393 ARG  ARG  AR     0.000000        39.9480           0
    5394 ARGN 5394 ARG  ARG  AR     0.000000        39.9480           0
    5395 ARGN 5395 ARG  ARG  AR     0.000000        39.9480           0
    5396 ARGN 5396 ARG  ARG  AR     0.000000        39.9480           0
    5397 ARGN 5397 ARG  ARG  AR     0.000000        39.9480           0
    5398 ARGN 5398 ARG  ARG  AR     0.000000        39.9480           0
    5399 ARGN 5399 ARG  ARG  AR     0.000000        39.9480           0
    5400 ARGN 5400 ARG  ARG  AR     0.000000        39.9480           0
    5401 ARGN 5401 ARG  ARG  AR     0.000000        39.9480           0
    5402 ARGN 5402 ARG  ARG  AR     0.000000        39.9480           0
    5403 ARGN 5403 ARG  ARG  AR     0.000000        39.9480           0
    5404 ARGN 5404 ARG  ARG  AR     0.000000        39.9480           0
    5405 ARGN 5405 ARG  ARG  AR     0.000000        39.9480           0
    5406 ARGN 5406 ARG  ARG  AR     0.000000        39.9480           0
    5407 ARGN 5407 ARG  ARG  AR     0.000000        39.9480           0
    5408 ARGN 5408 ARG  ARG  AR     0.000000        39.9480           0
    5409 ARGN 5409 ARG  ARG  AR     0.000000        39.9480           0
    5410 ARGN 5410 ARG  ARG  AR     0.000000        39.9480           0
    5411 ARGN 5411 ARG  ARG  AR     0.000000        39.9480           0
    5412 ARGN 5412 ARG  ARG  AR     0.000000        39.9480           0
    5413 ARGN 5413 ARG  ARG  AR     0.000000        39.9480           0
    5414 ARGN 5414 ARG  ARG  AR     0.000000        39.9480           0
    5415 ARGN 5415 ARG  ARG  AR     0.000000        39.9480           0
    5416 ARGN 5416 ARG  ARG  AR     0.000000        39.9480           0
    5417 ARGN 5417 ARG  ARG  AR     0.000000        39.9480           0
    5418 ARGN 5418 ARG  ARG  AR     0.000000        39.9480           0
    5419 ARGN 5419 ARG  ARG  AR     0.000000        39.9480           0
    5420 ARGN 5420 ARG  ARG  AR     0.000000        39.9480           0
    5421 ARGN 5421 ARG  ARG  AR     0.000000        39.9480           0
    5422 ARGN 5422 ARG  ARG  AR     0.000000        39.9480           0
    5423 ARGN 5423 ARG  ARG  AR     0.000000        39.9480           0
    5424 ARGN 5424 ARG  ARG  AR     0.000000        39.9480           0
    5425 ARGN 5425 ARG  ARG  AR     0.000000        39.9480           0
    5426 ARGN 5426 ARG  ARG  AR     0.000000        39.9480           0
    5427 ARGN 5427 ARG  ARG  AR     0.000000        39.9480           0
    5428 ARGN 5428 ARG  ARG  AR     0.000000        39.9480           0
    5429 ARGN 5429 ARG  ARG  AR     0.000000        39.9480           0
    5430 ARGN 5430 ARG  ARG  AR     0.000000        39.9480           0
    5431 ARGN 5431 ARG  ARG  AR     0.000000        39.9480           0
    5432 ARGN 5432 ARG  ARG  AR     0.000000        39.9480           0
    5433 ARGN 5433 ARG  ARG  AR     0.000000        39.9480           0
    5434 ARGN 5434 ARG  ARG  AR     0.000000        39.9480           0
    5435 ARGN 5435 ARG  ARG  AR     0.000000        39.9480           0
    5436 ARGN 5436 ARG  ARG  AR     0.000000        39.9480           0
    5437 ARGN 5437 ARG  ARG  AR     0.000000        39.9480           0
    5438 ARGN 5438 ARG  ARG  AR     0.000000        39.9480           0
    5439 ARGN 5439 ARG  ARG  AR     0.000000        39.9480           0
    5440 ARGN 5440 ARG  ARG  AR     0.000000        39.9480           0
    5441 ARGN 5441 ARG  ARG  AR     0.000000        39.9480           0
    5442 ARGN 5442 ARG  ARG  AR     0.000000        39.9480           0
    5443 ARGN 5443 ARG  ARG  AR     0.000000        39.9480           0
    5444 ARGN 5444 ARG  ARG  AR     0.000000        39.9480           0
    5445 ARGN 5445 ARG  ARG  AR     0.000000        39.9480           0
    5446 ARGN 5446 ARG  ARG  AR     0.000000        39.9480           0
    5447 ARGN 5447 ARG  ARG  AR     0.000000        39.9480           0
    5448 ARGN 5448 ARG  ARG  AR     0.000000        39.9480           0
    5449 ARGN 5449 ARG  ARG  AR     0.000000        39.9480           0
    5450 ARGN 5450 ARG  ARG  AR     0.000000        39.9480           0
    5451 ARGN 5451 ARG  ARG  AR     0.000000        39.9480           0
    5452 ARGN 5452 ARG  ARG  AR     0.000000        39.9480           0
    5453 ARGN 5453 ARG  ARG  AR     0.000000        39.9480           0
    5454 ARGN 5454 ARG  ARG  AR     0.000000        39.9480           0
    5455 ARGN 5455 ARG  ARG  AR     0.000000        39.9480           0
    5456 ARGN 5456 ARG  ARG  AR     0.000000        39.9480           0
    5457 ARGN 5457 ARG  ARG  AR     0.000000        39.9480           0
    5458 ARGN 5458 ARG  ARG  AR     0.000000        39.9480           0
    5459 ARGN 5459 ARG  ARG  AR     0.000000        39.9480           0
    5460 ARGN 5460 ARG  ARG  AR     0.000000        39.9480           0
    5461 ARGN 5461 ARG  ARG  AR     0.000000        39.9480           0
    5462 ARGN 5462 ARG  ARG  AR     0.000000        39.9480           0
    5463 ARGN 5463 ARG  ARG  AR     0.000000        39.9480           0
    5464 ARGN 5464 ARG  ARG  AR     0.000000        39.9480           0
    5465 ARGN 5465 ARG  ARG  AR     0.000000        39.9480           0
    5466 ARGN 5466 ARG  ARG  AR     0.000000        39.9480           0
    5467 ARGN 5467 ARG  ARG  AR     0.000000        39.9480           0
    5468 ARGN 5468 ARG  ARG  AR     0.000000        39.9480           0
    5469 ARGN 5469 ARG  ARG  AR     0.000000        39.9480           0
    5470 ARGN 5470 ARG  ARG  AR     0.000000        39.9480           0
    5471 ARGN 5471 ARG  ARG  AR     0.000000        39.9480           0
    5472 ARGN 5472 ARG  ARG  AR     0.000000        39.9480           0
    5473 ARGN 5473 ARG  ARG  AR     0.000000        39.9480           0
    5474 ARGN 5474 ARG  ARG  AR     0.000000        39.9480           0
    5475 ARGN 5475 ARG  ARG  AR     0.000000        39.9480           0
    5476 ARGN 5476 ARG  ARG  AR     0.000000        39.9480           0
    5477 ARGN 5477 ARG  ARG  AR     0.000000        39.9480           0
    5478 ARGN 5478 ARG  ARG  AR     0.000000        39.9480           0
    5479 ARGN 5479 ARG  ARG  AR     0.000000        39.9480           0
    5480 ARGN 5480 ARG  ARG  AR     0.000000        39.9480           0
    5481 ARGN 5481 ARG  ARG  AR     0.000000        39.9480           0
    5482 ARGN 5482 ARG  ARG  AR     0.000000        39.9480           0
    5483 ARGN 5483 ARG  ARG  AR     0.000000        39.9480           0
    5484 ARGN 5484 ARG  ARG  AR     0.000000        39.9480           0
    5485 ARGN 5485 ARG  ARG  AR     0.000000        39.9480           0
    5486 ARGN 5486 ARG  ARG  AR     0.000000        39.9480           0
    5487 ARGN 5487 ARG  ARG  AR     0.000000        39.9480           0
    5488 ARGN 5488 ARG  ARG  AR     0.000000        39.9480           0
    5489 ARGN 5489 ARG  ARG  AR     0.000000        39.9480           0
    5490 ARGN 5490 ARG  ARG  AR     0.000000        39.9480           0
    5491 ARGN 5491 ARG  ARG  AR     0.000000        39.9480           0
    5492 ARGN 5492 ARG  ARG  AR     0.000000        39.9480           0
    5493 ARGN 5493 ARG  ARG  AR     0.000000        39.9480           0
    5494 ARGN 5494 ARG  ARG  AR     0.000000        39.9480           0
    5495 ARGN 5495 ARG  ARG  AR     0.000000        39.9480           0
    5496 ARGN 5496 ARG  ARG  AR     0.000000        39.9480           0
    5497 ARGN 5497 ARG  ARG  AR     0.000000        39.9480           0
    5498 ARGN 5498 ARG  ARG  AR     0.000000        39.9480           0
    5499 ARGN 5499 ARG  ARG  AR     0.000000        39.9480           0
    5500 ARGN 5500 ARG  ARG  AR     0.000000        39.9480           0
    5501 ARGN 5501 ARG  ARG  AR     0.000000        39.9480           0
    5502 ARGN 5502 ARG  ARG  AR     0.000000        39.9480           0
    5503 ARGN 5503 ARG  ARG  AR     0.000000        39.9480           0
    5504 ARGN 5504 ARG  ARG  AR     0.000000        39.9480           0
    5505 ARGN 5505 ARG  ARG  AR     0.000000        39.9480           0
    5506 ARGN 5506 ARG  ARG  AR     0.000000        39.9480           0
    5507 ARGN 5507 ARG  ARG  AR     0.000000        39.9480           0
    5508 ARGN 5508 ARG  ARG  AR     0.000000        39.9480           0
    5509 ARGN 5509 ARG  ARG  AR     0.000000        39.9480           0
    5510 ARGN 5510 ARG  ARG  AR     0.000000        39.9480           0
    5511 ARGN 5511 ARG  ARG  AR     0.000000        39.9480           0
    5512 ARGN 5512 ARG  ARG  AR     0.000000        39.9480           0
    5513 ARGN 5513 ARG  ARG  AR     0.000000        39.9480           0
    5514 ARGN 5514 ARG  ARG  AR     0.000000        39.9480           0
    5515 ARGN 5515 ARG  ARG  AR     0.000000        39.9480           0
    5516 ARGN 5516 ARG  ARG  AR     0.000000        39.9480           0
    5517 ARGN 5517 ARG  ARG  AR     0.000000        39.9480           0
    5518 ARGN 5518 ARG  ARG  AR     0.000000        39.9480           0
    5519 ARGN 5519 ARG  ARG  AR     0.000000        39.9480           0
    5520 ARGN 5520 ARG  ARG  AR     0.000000        39.9480           0
    5521 ARGN 5521 ARG  ARG  AR     0.000000        39.9480           0
    5522 ARGN 5522 ARG  ARG  AR     0.000000        39.9480           0
    5523 ARGN 5523 ARG  ARG  AR     0.000000        39.9480           0
    5524 ARGN 5524 ARG  ARG  AR     0.000000        39.9480           0
    5525 ARGN 5525 ARG  ARG  AR     0.000000        39.9480           0
    5526 ARGN 5526 ARG  ARG  AR     0.000000        39.9480           0
    5527 ARGN 5527 ARG  ARG  AR     0.000000        39.9480           0
    5528 ARGN 5528 ARG  ARG  AR     0.000000        39.9480           0
    5529 ARGN 5529 ARG  ARG  AR     0.000000        39.9480           0
    5530 ARGN 5530 ARG  ARG  AR     0.000000        39.9480           0
    5531 ARGN 5531 ARG  ARG  AR     0.000000        39.9480           0
    5532 ARGN 5532 ARG  ARG  AR     0.000000        39.9480           0
    5533 ARGN 5533 ARG  ARG  AR     0.000000        39.9480           0
    5534 ARGN 5534 ARG  ARG  AR     0.000000        39.9480           0
    5535 ARGN 5535 ARG  ARG  AR     0.000000        39.9480           0
    5536 ARGN 5536 ARG  ARG  AR     0.000000        39.9480           0
    5537 ARGN 5537 ARG  ARG  AR     0.000000        39.9480           0
    5538 ARGN 5538 ARG  ARG  AR     0.000000        39.9480           0
    5539 ARGN 5539 ARG  ARG  AR     0.000000        39.9480           0
    5540 ARGN 5540 ARG  ARG  AR     0.000000        39.9480           0
    5541 ARGN 5541 ARG  ARG  AR     0.000000        39.9480           0
    5542 ARGN 5542 ARG  ARG  AR     0.000000        39.9480           0
    5543 ARGN 5543 ARG  ARG  AR     0.000000        39.9480           0
    5544 ARGN 5544 ARG  ARG  AR     0.000000        39.9480           0
    5545 ARGN 5545 ARG  ARG  AR     0.000000        39.9480           0
    5546 ARGN 5546 ARG  ARG  AR     0.000000        39.9480           0
    5547 ARGN 5547 ARG  ARG  AR     0.000000        39.9480           0
    5548 ARGN 5548 ARG  ARG  AR     0.000000        39.9480           0
    5549 ARGN 5549 ARG  ARG  AR     0.000000        39.9480           0
    5550 ARGN 5550 ARG  ARG  AR     0.000000        39.9480           0
    5551 ARGN 5551 ARG  ARG  AR     0.000000        39.9480           0
    5552 ARGN 5552 ARG  ARG  AR     0.000000        39.9480           0
    5553 ARGN 5553 ARG  ARG  AR     0.000000        39.9480           0
    5554 ARGN 5554 ARG  ARG  AR     0.000000        39.9480           0
    5555 ARGN 5555 ARG  ARG  AR     0.000000        39.9480           0
    5556 ARGN 5556 ARG  ARG  AR     0.000000        39.9480           0
    5557 ARGN 5557 ARG  ARG  AR     0.000000        39.9480           0
    5558 ARGN 5558 ARG  ARG  AR     0.000000        39.9480           0
    5559 ARGN 5559 ARG  ARG  AR     0.000000        39.9480           0
    5560 ARGN 5560 ARG  ARG  AR     0.000000        39.9480           0
    5561 ARGN 5561 ARG  ARG  AR     0.000000        39.9480           0
    5562 ARGN 5562 ARG  ARG  AR     0.000000        39.9480           0
    5563 ARGN 5563 ARG  ARG  AR     0.000000        39.9480           0
    5564 ARGN 5564 ARG  ARG  AR     0.000000        39.9480           0
    5565 ARGN 5565 ARG  ARG  AR     0.000000        39.9480           0
    5566 ARGN 5566 ARG  ARG  AR     0.000000        39.9480           0
    5567 ARGN 5567 ARG  ARG  AR     0.000000        39.9480           0
    5568 ARGN 5568 ARG  ARG  AR     0.000000        39.9480           0
    5569 ARGN 5569 ARG  ARG  AR     0.000000        39.9480           0
    5570 ARGN 5570 ARG  ARG  AR     0.000000        39.9480           0
    5571 ARGN 5571 ARG  ARG  AR     0.000000        39.9480           0
    5572 ARGN 5572 ARG  ARG  AR     0.000000        39.9480           0
    5573 ARGN 5573 ARG  ARG  AR     0.000000        39.9480           0
    5574 ARGN 5574 ARG  ARG  AR     0.000000        39.9480           0
    5575 ARGN 5575 ARG  ARG  AR     0.000000        39.9480           0
    5576 ARGN 5576 ARG  ARG  AR     0.000000        39.9480           0
    5577 ARGN 5577 ARG  ARG  AR     0.000000        39.9480           0
    5578 ARGN 5578 ARG  ARG  AR     0.000000        39.9480           0
    5579 ARGN 5579 ARG  ARG  AR     0.000000        39.9480           0
    5580 ARGN 5580 ARG  ARG  AR     0.000000        39.9480           0
    5581 ARGN 5581 ARG  ARG  AR     0.000000        39.9480           0
    5582 ARGN 5582 ARG  ARG  AR     0.000000        39.9480           0
    5583 ARGN 5583 ARG  ARG  AR     0.000000        39.9480           0
    5584 ARGN 5584 ARG  ARG  AR     0.000000        39.9480           0
    5585 ARGN 5585 ARG  ARG  AR     0.000000        39.9480           0
    5586 ARGN 5586 ARG  ARG  AR     0.000000        39.9480           0
    5587 ARGN 5587 ARG  ARG  AR     0.000000        39.9480           0
    5588 ARGN 5588 ARG  ARG  AR     0.000000        39.9480           0
    5589 ARGN 5589 ARG  ARG  AR     0.000000        39.9480           0
    5590 ARGN 5590 ARG  ARG  AR     0.000000        39.9480           0
    5591 ARGN 5591 ARG  ARG  AR     0.000000        39.9480           0
    5592 ARGN 5592 ARG  ARG  AR     0.000000        39.9480           0
    5593 ARGN 5593 ARG  ARG  AR     0.000000        39.9480           0
    5594 ARGN 5594 ARG  ARG  AR     0.000000        39.9480           0
    5595 ARGN 5595 ARG  ARG  AR     0.000000        39.9480           0
    5596 ARGN 5596 ARG  ARG  AR     0.000000        39.9480           0
    5597 ARGN 5597 ARG  ARG  AR     0.000000        39.9480           0
    5598 ARGN 5598 ARG  ARG  AR     0.000000        39.9480           0
    5599 ARGN 5599 ARG  ARG  AR     0.000000        39.9480           0
    5600 ARGN 5600 ARG  ARG  AR     0.000000        39.9480           0
    5601 ARGN 5601 ARG  ARG  AR     0.000000        39.9480           0
    5602 ARGN 5602 ARG  ARG  AR     0.000000        39.9480           0
    5603 ARGN 5603 ARG  ARG  AR     0.000000        39.9480           0
    5604 ARGN 5604 ARG  ARG  AR     0.000000        39.9480           0
    5605 ARGN 5605 ARG  ARG  AR     0.000000        39.9480           0
    5606 ARGN 5606 ARG  ARG  AR     0.000000        39.9480           0
    5607 ARGN 5607 ARG  ARG  AR     0.000000        39.9480           0
    5608 ARGN 5608 ARG  ARG  AR     0.000000        39.9480           0
    5609 ARGN 5609 ARG  ARG  AR     0.000000        39.9480           0
    5610 ARGN 5610 ARG  ARG  AR     0.000000        39.9480           0
    5611 ARGN 5611 ARG  ARG  AR     0.000000        39.9480           0
    5612 ARGN 5612 ARG  ARG  AR     0.000000        39.9480           0
    5613 ARGN 5613 ARG  ARG  AR     0.000000        39.9480           0
    5614 ARGN 5614 ARG  ARG  AR     0.000000        39.9480           0
    5615 ARGN 5615 ARG  ARG  AR     0.000000        39.9480           0
    5616 ARGN 5616 ARG  ARG  AR     0.000000        39.9480           0
    5617 ARGN 5617 ARG  ARG  AR     0.000000        39.9480           0
    5618 ARGN 5618 ARG  ARG  AR     0.000000        39.9480           0
    5619 ARGN 5619 ARG  ARG  AR     0.000000        39.9480           0
    5620 ARGN 5620 ARG  ARG  AR     0.000000        39.9480           0
    5621 ARGN 5621 ARG  ARG  AR     0.000000        39.9480           0
    5622 ARGN 5622 ARG  ARG  AR     0.000000        39.9480           0
    5623 ARGN 5623 ARG  ARG  AR     0.000000        39.9480           0
    5624 ARGN 5624 ARG  ARG  AR     0.000000        39.9480           0
    5625 ARGN 5625 ARG  ARG  AR     0.000000        39.9480           0
    5626 ARGN 5626 ARG  ARG  AR     0.000000        39.9480           0
    5627 ARGN 5627 ARG  ARG  AR     0.000000        39.9480           0
    5628 ARGN 5628 ARG  ARG  AR     0.000000        39.9480           0
    5629 ARGN 5629 ARG  ARG  AR     0.000000        39.9480           0
    5630 ARGN 5630 ARG  ARG  AR     0.000000        39.9480           0
    5631 ARGN 5631 ARG  ARG  AR     0.000000        39.9480           0
    5632 ARGN 5632 ARG  ARG  AR     0.000000        39.9480           0
    5633 ARGN 5633 ARG  ARG  AR     0.000000        39.9480           0
    5634 ARGN 5634 ARG  ARG  AR     0.000000        39.9480           0
    5635 ARGN 5635 ARG  ARG  AR     0.000000        39.9480           0
    5636 ARGN 5636 ARG  ARG  AR     0.000000        39.9480           0
    5637 ARGN 5637 ARG  ARG  AR     0.000000        39.9480           0
    5638 ARGN 5638 ARG  ARG  AR     0.000000        39.9480           0
    5639 ARGN 5639 ARG  ARG  AR     0.000000        39.9480           0
    5640 ARGN 5640 ARG  ARG  AR     0.000000        39.9480           0
    5641 ARGN 5641 ARG  ARG  AR     0.000000        39.9480           0
    5642 ARGN 5642 ARG  ARG  AR     0.000000        39.9480           0
    5643 ARGN 5643 ARG  ARG  AR     0.000000        39.9480           0
    5644 ARGN 5644 ARG  ARG  AR     0.000000        39.9480           0
    5645 ARGN 5645 ARG  ARG  AR     0.000000        39.9480           0
    5646 ARGN 5646 ARG  ARG  AR     0.000000        39.9480           0
    5647 ARGN 5647 ARG  ARG  AR     0.000000        39.9480           0
    5648 ARGN 5648 ARG  ARG  AR     0.000000        39.9480           0
    5649 ARGN 5649 ARG  ARG  AR     0.000000        39.9480           0
    5650 ARGN 5650 ARG  ARG  AR     0.000000        39.9480           0
    5651 ARGN 5651 ARG  ARG  AR     0.000000        39.9480           0
    5652 ARGN 5652 ARG  ARG  AR     0.000000        39.9480           0
    5653 ARGN 5653 ARG  ARG  AR     0.000000        39.9480           0
    5654 ARGN 5654 ARG  ARG  AR     0.000000        39.9480           0
    5655 ARGN 5655 ARG  ARG  AR     0.000000        39.9480           0
    5656 ARGN 5656 ARG  ARG  AR     0.000000        39.9480           0
    5657 ARGN 5657 ARG  ARG  AR     0.000000        39.9480           0
    5658 ARGN 5658 ARG  ARG  AR     0.000000        39.9480           0
    5659 ARGN 5659 ARG  ARG  AR     0.000000        39.9480           0
    5660 ARGN 5660 ARG  ARG  AR     0.000000        39.9480           0
    5661 ARGN 5661 ARG  ARG  AR     0.000000        39.9480           0
    5662 ARGN 5662 ARG  ARG  AR     0.000000        39.9480           0
    5663 ARGN 5663 ARG  ARG  AR     0.000000        39.9480           0
    5664 ARGN 5664 ARG  ARG  AR     0.000000        39.9480           0
    5665 ARGN 5665 ARG  ARG  AR     0.000000        39.9480           0
    5666 ARGN 5666 ARG  ARG  AR     0.000000        39.9480           0
    5667 ARGN 5667 ARG  ARG  AR     0.000000        39.9480           0
    5668 ARGN 5668 ARG  ARG  AR     0.000000        39.9480           0
    5669 ARGN 5669 ARG  ARG  AR     0.000000        39.9480           0
    5670 ARGN 5670 ARG  ARG  AR     0.000000        39.9480           0
    5671 ARGN 5671 ARG  ARG  AR     0.000000        39.9480           0
    5672 ARGN 5672 ARG  ARG  AR     0.000000        39.9480           0
    5673 ARGN 5673 ARG  ARG  AR     0.000000        39.9480           0
    5674 ARGN 5674 ARG  ARG  AR     0.000000        39.9480           0
    5675 ARGN 5675 ARG  ARG  AR     0.000000        39.9480           0
    5676 ARGN 5676 ARG  ARG  AR     0.000000        39.9480           0
    5677 ARGN 5677 ARG  ARG  AR     0.000000        39.9480           0
    5678 ARGN 5678 ARG  ARG  AR     0.000000        39.9480           0
    5679 ARGN 5679 ARG  ARG  AR     0.000000        39.9480           0
    5680 ARGN 5680 ARG  ARG  AR     0.000000        39.9480           0
    5681 ARGN 5681 ARG  ARG  AR     0.000000        39.9480           0
    5682 ARGN 5682 ARG  ARG  AR     0.000000        39.9480           0
    5683 ARGN 5683 ARG  ARG  AR     0.000000        39.9480           0
    5684 ARGN 5684 ARG  ARG  AR     0.000000        39.9480           0
    5685 ARGN 5685 ARG  ARG  AR     0.000000        39.9480           0
    5686 ARGN 5686 ARG  ARG  AR     0.000000        39.9480           0
    5687 ARGN 5687 ARG  ARG  AR     0.000000        39.9480           0
    5688 ARGN 5688 ARG  ARG  AR     0.000000        39.9480           0
    5689 ARGN 5689 ARG  ARG  AR     0.000000        39.9480           0
    5690 ARGN 5690 ARG  ARG  AR     0.000000        39.9480           0
    5691 ARGN 5691 ARG  ARG  AR     0.000000        39.9480           0
    5692 ARGN 5692 ARG  ARG  AR     0.000000        39.9480           0
    5693 ARGN 5693 ARG  ARG  AR     0.000000        39.9480           0
    5694 ARGN 5694 ARG  ARG  AR     0.000000        39.9480           0
    5695 ARGN 5695 ARG  ARG  AR     0.000000        39.9480           0
    5696 ARGN 5696 ARG  ARG  AR     0.000000        39.9480           0
    5697 ARGN 5697 ARG  ARG  AR     0.000000        39.9480           0
    5698 ARGN 5698 ARG  ARG  AR     0.000000        39.9480           0
    5699 ARGN 5699 ARG  ARG  AR     0.000000        39.9480           0
    5700 ARGN 5700 ARG  ARG  AR     0.000000        39.9480           0
    5701 ARGN 5701 ARG  ARG  AR     0.000000        39.9480           0
    5702 ARGN 5702 ARG  ARG  AR     0.000000        39.9480           0
    5703 ARGN 5703 ARG  ARG  AR     0.000000        39.9480           0
    5704 ARGN 5704 ARG  ARG  AR     0.000000        39.9480           0
    5705 ARGN 5705 ARG  ARG  AR     0.000000        39.9480           0
    5706 ARGN 5706 ARG  ARG  AR     0.000000        39.9480           0
    5707 ARGN 5707 ARG  ARG  AR     0.000000        39.9480           0
    5708 ARGN 5708 ARG  ARG  AR     0.000000        39.9480           0
    5709 ARGN 5709 ARG  ARG  AR     0.000000        39.9480           0
    5710 ARGN 5710 ARG  ARG  AR     0.000000        39.9480           0
    5711 ARGN 5711 ARG  ARG  AR     0.000000        39.9480           0
    5712 ARGN 5712 ARG  ARG  AR     0.000000        39.9480           0
    5713 ARGN 5713 ARG  ARG  AR     0.000000        39.9480           0
    5714 ARGN 5714 ARG  ARG  AR     0.000000        39.9480           0
    5715 ARGN 5715 ARG  ARG  AR     0.000000        39.9480           0
    5716 ARGN 5716 ARG  ARG  AR     0.000000        39.9480           0
    5717 ARGN 5717 ARG  ARG  AR     0.000000        39.9480           0
    5718 ARGN 5718 ARG  ARG  AR     0.000000        39.9480           0
    5719 ARGN 5719 ARG  ARG  AR     0.000000        39.9480           0
    5720 ARGN 5720 ARG  ARG  AR     0.000000        39.9480           0
    5721 ARGN 5721 ARG  ARG  AR     0.000000        39.9480           0
    5722 ARGN 5722 ARG  ARG  AR     0.000000        39.9480           0
    5723 ARGN 5723 ARG  ARG  AR     0.000000        39.9480           0
    5724 ARGN 5724 ARG  ARG  AR     0.000000        39.9480           0
    5725 ARGN 5725 ARG  ARG  AR     0.000000        39.9480           0
    5726 ARGN 5726 ARG  ARG  AR     0.000000        39.9480           0
    5727 ARGN 5727 ARG  ARG  AR     0.000000        39.9480           0
    5728 ARGN 5728 ARG  ARG  AR     0.000000        39.9480           0
    5729 ARGN 5729 ARG  ARG  AR     0.000000        39.9480           0
    5730 ARGN 5730 ARG  ARG  AR     0.000000        39.9480           0
    5731 ARGN 5731 ARG  ARG  AR     0.000000        39.9480           0
    5732 ARGN 5732 ARG  ARG  AR     0.000000        39.9480           0
    5733 ARGN 5733 ARG  ARG  AR     0.000000        39.9480           0
    5734 ARGN 5734 ARG  ARG  AR     0.000000        39.9480           0
    5735 ARGN 5735 ARG  ARG  AR     0.000000        39.9480           0
    5736 ARGN 5736 ARG  ARG  AR     0.000000        39.9480           0
    5737 ARGN 5737 ARG  ARG  AR     0.000000        39.9480           0
    5738 ARGN 5738 ARG  ARG  AR     0.000000        39.9480           0
    5739 ARGN 5739 ARG  ARG  AR     0.000000        39.9480           0
    5740 ARGN 5740 ARG  ARG  AR     0.000000        39.9480           0
    5741 ARGN 5741 ARG  ARG  AR     0.000000        39.9480           0
    5742 ARGN 5742 ARG  ARG  AR     0.000000        39.9480           0
    5743 ARGN 5743 ARG  ARG  AR     0.000000        39.9480           0
    5744 ARGN 5744 ARG  ARG  AR     0.000000        39.9480           0
    5745 ARGN 5745 ARG  ARG  AR     0.000000        39.9480           0
    5746 ARGN 5746 ARG  ARG  AR     0.000000        39.9480           0
    5747 ARGN 5747 ARG  ARG  AR     0.000000        39.9480           0
    5748 ARGN 5748 ARG  ARG  AR     0.000000        39.9480           0
    5749 ARGN 5749 ARG  ARG  AR     0.000000        39.9480           0
    5750 ARGN 5750 ARG  ARG  AR     0.000000        39.9480           0
    5751 ARGN 5751 ARG  ARG  AR     0.000000        39.9480           0
    5752 ARGN 5752 ARG  ARG  AR     0.000000        39.9480           0
    5753 ARGN 5753 ARG  ARG  AR     0.000000        39.9480           0
    5754 ARGN 5754 ARG  ARG  AR     0.000000        39.9480           0
    5755 ARGN 5755 ARG  ARG  AR     0.000000        39.9480           0
    5756 ARGN 5756 ARG  ARG  AR     0.000000        39.9480           0
    5757 ARGN 5757 ARG  ARG  AR     0.000000        39.9480           0
    5758 ARGN 5758 ARG  ARG  AR     0.000000        39.9480           0
    5759 ARGN 5759 ARG  ARG  AR     0.000000        39.9480           0
    5760 ARGN 5760 ARG  ARG  AR     0.000000        39.9480           0
    5761 ARGN 5761 ARG  ARG  AR     0.000000        39.9480           0
    5762 ARGN 5762 ARG  ARG  AR     0.000000        39.9480           0
    5763 ARGN 5763 ARG  ARG  AR     0.000000        39.9480           0
    5764 ARGN 5764 ARG  ARG  AR     0.000000        39.9480           0
    5765 ARGN 5765 ARG  ARG  AR     0.000000        39.9480           0
    5766 ARGN 5766 ARG  ARG  AR     0.000000        39.9480           0
    5767 ARGN 5767 ARG  ARG  AR     0.000000        39.9480           0
    5768 ARGN 5768 ARG  ARG  AR     0.000000        39.9480           0
    5769 ARGN 5769 ARG  ARG  AR     0.000000        39.9480           0
    5770 ARGN 5770 ARG  ARG  AR     0.000000        39.9480           0
    5771 ARGN 5771 ARG  ARG  AR     0.000000        39.9480           0
    5772 ARGN 5772 ARG  ARG  AR     0.000000        39.9480           0
    5773 ARGN 5773 ARG  ARG  AR     0.000000        39.9480           0
    5774 ARGN 5774 ARG  ARG  AR     0.000000        39.9480           0
    5775 ARGN 5775 ARG  ARG  AR     0.000000        39.9480           0
    5776 ARGN 5776 ARG  ARG  AR     0.000000        39.9480           0
    5777 ARGN 5777 ARG  ARG  AR     0.000000        39.9480           0
    5778 ARGN 5778 ARG  ARG  AR     0.000000        39.9480           0
    5779 ARGN 5779 ARG  ARG  AR     0.000000        39.9480           0
    5780 ARGN 5780 ARG  ARG  AR     0.000000        39.9480           0
    5781 ARGN 5781 ARG  ARG  AR     0.000000        39.9480           0
    5782 ARGN 5782 ARG  ARG  AR     0.000000        39.9480           0
    5783 ARGN 5783 ARG  ARG  AR     0.000000        39.9480           0
    5784 ARGN 5784 ARG  ARG  AR     0.000000        39.9480           0
    5785 ARGN 5785 ARG  ARG  AR     0.000000        39.9480           0
    5786 ARGN 5786 ARG  ARG  AR     0.000000        39.9480           0
    5787 ARGN 5787 ARG  ARG  AR     0.000000        39.9480           0
    5788 ARGN 5788 ARG  ARG  AR     0.000000        39.9480           0
    5789 ARGN 5789 ARG  ARG  AR     0.000000        39.9480           0
    5790 ARGN 5790 ARG  ARG  AR     0.000000        39.9480           0
    5791 ARGN 5791 ARG  ARG  AR     0.000000        39.9480           0
    5792 ARGN 5792 ARG  ARG  AR     0.000000        39.9480           0
    5793 ARGN 5793 ARG  ARG  AR     0.000000        39.9480           0
    5794 ARGN 5794 ARG  ARG  AR     0.000000        39.9480           0
    5795 ARGN 5795 ARG  ARG  AR     0.000000        39.9480           0
    5796 ARGN 5796 ARG  ARG  AR     0.000000        39.9480           0
    5797 ARGN 5797 ARG  ARG  AR     0.000000        39.9480           0
    5798 ARGN 5798 ARG  ARG  AR     0.000000        39.9480           0
    5799 ARGN 5799 ARG  ARG  AR     0.000000        39.9480           0
    5800 ARGN 5800 ARG  ARG  AR     0.000000        39.9480           0
    5801 ARGN 5801 ARG  ARG  AR     0.000000        39.9480           0
    5802 ARGN 5802 ARG  ARG  AR     0.000000        39.9480           0
    5803 ARGN 5803 ARG  ARG  AR     0.000000        39.9480           0
    5804 ARGN 5804 ARG  ARG  AR     0.000000        39.9480           0
    5805 ARGN 5805 ARG  ARG  AR     0.000000        39.9480           0
    5806 ARGN 5806 ARG  ARG  AR     0.000000        39.9480           0
    5807 ARGN 5807 ARG  ARG  AR     0.000000        39.9480           0
    5808 ARGN 5808 ARG  ARG  AR     0.000000        39.9480           0
    5809 ARGN 5809 ARG  ARG  AR     0.000000        39.9480           0
    5810 ARGN 5810 ARG  ARG  AR     0.000000        39.9480           0
    5811 ARGN 5811 ARG  ARG  AR     0.000000        39.9480           0
    5812 ARGN 5812 ARG  ARG  AR     0.000000        39.9480           0
    5813 ARGN 5813 ARG  ARG  AR     0.000000        39.9480           0
    5814 ARGN 5814 ARG  ARG  AR     0.000000        39.9480           0
    5815 ARGN 5815 ARG  ARG  AR     0.000000        39.9480           0
    5816 ARGN 5816 ARG  ARG  AR     0.000000        39.9480           0
    5817 ARGN 5817 ARG  ARG  AR     0.000000        39.9480           0
    5818 ARGN 5818 ARG  ARG  AR     0.000000        39.9480           0
    5819 ARGN 5819 ARG  ARG  AR     0.000000        39.9480           0
    5820 ARGN 5820 ARG  ARG  AR     0.000000        39.9480           0
    5821 ARGN 5821 ARG  ARG  AR     0.000000        39.9480           0
    5822 ARGN 5822 ARG  ARG  AR     0.000000        39.9480           0
    5823 ARGN 5823 ARG  ARG  AR     0.000000        39.9480           0
    5824 ARGN 5824 ARG  ARG  AR     0.000000        39.9480           0
    5825 ARGN 5825 ARG  ARG  AR     0.000000        39.9480           0
    5826 ARGN 5826 ARG  ARG  AR     0.000000        39.9480           0
    5827 ARGN 5827 ARG  ARG  AR     0.000000        39.9480           0
    5828 ARGN 5828 ARG  ARG  AR     0.000000        39.9480           0
    5829 ARGN 5829 ARG  ARG  AR     0.000000        39.9480           0
    5830 ARGN 5830 ARG  ARG  AR     0.000000        39.9480           0
    5831 ARGN 5831 ARG  ARG  AR     0.000000        39.9480           0
    5832 ARGN 5832 ARG  ARG  AR     0.000000        39.9480           0
    5833 ARGN 5833 ARG  ARG  AR     0.000000        39.9480           0
    5834 ARGN 5834 ARG  ARG  AR     0.000000        39.9480           0
    5835 ARGN 5835 ARG  ARG  AR     0.000000        39.9480           0
    5836 ARGN 5836 ARG  ARG  AR     0.000000        39.9480           0
    5837 ARGN 5837 ARG  ARG  AR     0.000000        39.9480           0
    5838 ARGN 5838 ARG  ARG  AR     0.000000        39.9480           0
    5839 ARGN 5839 ARG  ARG  AR     0.000000        39.9480           0
    5840 ARGN 5840 ARG  ARG  AR     0.000000        39.9480           0
    5841 ARGN 5841 ARG  ARG  AR     0.000000        39.9480           0
    5842 ARGN 5842 ARG  ARG  AR     0.000000        39.9480           0
    5843 ARGN 5843 ARG  ARG  AR     0.000000        39.9480           0
    5844 ARGN 5844 ARG  ARG  AR     0.000000        39.9480           0
    5845 ARGN 5845 ARG  ARG  AR     0.000000        39.9480           0
    5846 ARGN 5846 ARG  ARG  AR     0.000000        39.9480           0
    5847 ARGN 5847 ARG  ARG  AR     0.000000        39.9480           0
    5848 ARGN 5848 ARG  ARG  AR     0.000000        39.9480           0
    5849 ARGN 5849 ARG  ARG  AR     0.000000        39.9480           0

       0 !NBOND: bonds

       0 !THETA: angles

       0 !PHI: dihedrals

       0 !IMPHI: impropers

       0 !DON: donors

       0 !ACC: acceptors

       0 !NNB

       0        0 !NGRP
